# t (s)	mx ()	my ()	mz ()	ext_bubbleposx (m)	ext_bubbleposy (m)	ext_bubbleposz (m)
0	-5.2386895e-10	-6.9849193e-10	-0.8933467	-5.000458e-10	-5.000572e-10	0
1.0005831791718583e-11	-1.2805685e-09	1.6298145e-09	-0.8933346	-5.0000953e-10	-5.0000953e-10	0
2.0021576449959116e-11	5.2386895e-09	2.3283064e-10	-0.8933145	-5.000324e-10	-5.0006294e-10	0
3.000065488880679e-11	-4.3364707e-09	7.21775e-09	-0.893304	-5.000725e-10	-5.000725e-10	0
4.00145945138838e-11	8.119969e-09	3.7252903e-09	-0.8933087	-5.000572e-10	-5.000458e-10	0
5.0027639510353896e-11	-5.296897e-09	4.8894435e-09	-0.8933201	-5.0004006e-10	-5.0002863e-10	0
6.00036652687159e-11	6.7811925e-09	-3.3760443e-09	-0.89332736	-5.0005533e-10	-5.000324e-10	0
7.001644464166561e-11	-1.1437805e-08	1.0826625e-08	-0.8933261	-5.0004195e-10	-5.0004195e-10	0
8.002930299884918e-11	1.0186341e-08	-8.032657e-09	-0.89331996	-5.0001525e-10	-5.000114e-10	0
9.000549083674967e-11	-4.947651e-09	1.5017577e-08	-0.8933151	-5.000534e-10	-5.0001714e-10	0
1.000180925836286e-10	2.8230716e-09	-9.19681e-09	-0.893315	-5.0004006e-10	-5.000458e-10	0
1.1003055798340466e-10	6.722985e-09	4.0745363e-09	-0.8933182	-5.0003623e-10	-5.000038e-10	0
1.2000614724192193e-10	-2.8521754e-09	-2.561137e-09	-0.89332134	-5.000706e-10	-5.000515e-10	0
1.3001855923812946e-10	2.0081643e-09	8.4983185e-09	-0.8933218	-5.000572e-10	-5.0001714e-10	0
1.400309905375052e-10	-4.0454324e-09	-6.170012e-09	-0.89332026	-5.000267e-10	-5.0002863e-10	0
1.500066840504908e-10	8.527422e-09	6.9849193e-09	-0.8933184	-5.0002863e-10	-5e-10	0
1.6001922191390612e-10	-5.122274e-09	-3.7252903e-09	-0.8933178	-5.0000953e-10	-5.000267e-10	0
1.7003176752375373e-10	1.1641532e-10	3.3760443e-09	-0.89331853	-5.000057e-10	-5.000267e-10	0
1.8000755984948926e-10	3.608875e-09	-4.656613e-09	-0.8933196	-5.000229e-10	-5.0001525e-10	0
1.9002018098098402e-10	1.7753337e-09	3.8417056e-09	-0.8933201	-5.0004006e-10	-5.000057e-10	0
2.0003279754898285e-10	-5.500624e-09	2.0954758e-09	-0.8933198	-5.0001525e-10	-5.000248e-10	0
2.100086209943193e-10	1.0855729e-08	6.9849193e-10	-0.89331913	-5.000038e-10	-4.9999427e-10	0
2.2002115897461497e-10	-1.0360964e-08	1.8626451e-09	-0.8933188	-5.0002863e-10	-5.000038e-10	0
2.300334010324294e-10	1.1670636e-08	1.3969839e-09	-0.8933189	-5.0002863e-10	-5.0002097e-10	0
2.400088054816225e-10	-8.352799e-09	3.7252903e-09	-0.8933192	-5.000229e-10	-5.000114e-10	0
2.500211059379149e-10	6.0827006e-09	1.8626451e-09	-0.8933195	-5.0001714e-10	-5.000458e-10	0
2.600333576420415e-10	-3.812602e-09	3.958121e-09	-0.8933195	-5.0003623e-10	-5.0001336e-10	0
2.700088667580244e-10	-5.820766e-11	-1.5133992e-09	-0.8933193	-5.000038e-10	-5.000267e-10	0
2.8002119176463e-10	5.820766e-11	-1.8626451e-09	-0.89331913	-5.000057e-10	-5.0000193e-10	0
2.9003353557539775e-10	4.7439244e-09	2.561137e-09	-0.89331913	-5.0000765e-10	-5.000038e-10	0
3.000090987854266e-10	1.1641532e-10	-4.4237822e-09	-0.89331925	-5e-10	-4.999847e-10	0
3.1002145804356143e-10	2.0954758e-09	-2.7939677e-09	-0.8933193	-5e-10	-5.0001525e-10	0
3.200338414567573e-10	-4.3655746e-09	1.7462298e-09	-0.89331937	-5.0000765e-10	-5.000191e-10	0
3.3000939423102527e-10	-2.4738256e-09	8.1490725e-10	-0.8933193	-4.999924e-10	-5.0000953e-10	0
3.4002178594680486e-10	6.9558155e-09	6.9849193e-10	-0.89331925	-5.000191e-10	-5.000057e-10	0
3.500341927007255e-10	-4.307367e-09	-6.9849193e-10	-0.89331925	-5.0000953e-10	-4.9999427e-10	0
3.600097309725815e-10	1.0128133e-08	4.1909516e-09	-0.89331925	-5.000191e-10	-4.9999427e-10	0
3.7002197985994696e-10	-3.1432137e-09	1.1525117e-08	-0.89331925	-5.0001714e-10	-5.0000193e-10	0
3.800341569132982e-10	-9.0221874e-10	-2.4447218e-09	-0.8933193	-5.0002863e-10	-5.0001336e-10	0
3.9000955209865776e-10	4.0745363e-09	7.683411e-09	-0.89331925	-5.0002863e-10	-4.999924e-10	0
4.0002175730913154e-10	3.2014214e-09	2.0954758e-09	-0.8933193	-5.0001714e-10	-5.0000953e-10	0
4.100339282730541e-10	-2.0372681e-09	7.450581e-09	-0.89331925	-5.0000953e-10	-5.0001525e-10	0
4.2000935448991365e-10	-4.0745363e-10	-2.7939677e-09	-0.89331925	-5.000114e-10	-4.999962e-10	0
4.3002157772786373e-10	-3.085006e-09	8.381903e-09	-0.89331925	-5.000267e-10	-5.0000193e-10	0
4.4003379667969594e-10	2.73576e-09	-1.0244548e-08	-0.8933193	-5.000057e-10	-4.999924e-10	0
4.5000924095653243e-10	2.9976945e-09	1.0244548e-08	-0.89331925	-5.0001336e-10	-4.999981e-10	0
4.6002145691375245e-10	-3.754394e-09	-5.122274e-09	-0.89331925	-5.000057e-10	-4.999924e-10	0
4.700337426632064e-10	4.627509e-09	-3.8417056e-09	-0.89331925	-5.000191e-10	-5.0002863e-10	0
4.800091532408326e-10	-5.9662852e-09	9.313226e-09	-0.89331925	-5e-10	-4.9998095e-10	0
4.900213905468185e-10	-6.024493e-09	9.313226e-09	-0.8933193	-5.0001525e-10	-5.000267e-10	0
5.000336630071889e-10	8.731149e-09	-2.0954758e-09	-0.89331925	-5.0002863e-10	-5.000038e-10	0
5.100091157606929e-10	-8.381903e-09	8.96398e-09	-0.89331925	-5.000191e-10	-5.000191e-10	0
5.20021289039155e-10	3.8999133e-09	-1.3504177e-08	-0.89331925	-5.0001525e-10	-4.9998666e-10	0
5.300334227813739e-10	-4.307367e-09	6.519258e-09	-0.89331925	-5.0001525e-10	-4.999962e-10	0
5.40008811838661e-10	6.344635e-09	-8.614734e-09	-0.89331925	-5.0001714e-10	-5.000229e-10	0
5.500209628356296e-10	3.4924597e-10	3.259629e-09	-0.89331925	-5.0001714e-10	-4.999962e-10	0
5.600331305685409e-10	6.4028427e-09	3.259629e-09	-0.8933193	-5.000229e-10	-5.000057e-10	0
5.700085113704933e-10	-6.6065695e-09	1.6298145e-09	-0.89331925	-5.0001336e-10	-5e-10	0
5.800207087672823e-10	2.764864e-09	0	-0.8933193	-5.000267e-10	-5.0000953e-10	0
5.900329419443076e-10	-1.2514647e-09	0	-0.89331925	-5.000305e-10	-5.0001336e-10	0
6.000082766339433e-10	-1.3969839e-09	-2.3283064e-10	-0.89331925	-5.000114e-10	-5.0002863e-10	0
6.100205182119861e-10	4.8603397e-09	2.3283064e-09	-0.89331925	-5.0004006e-10	-5.0001525e-10	0
6.20032723129277e-10	-6.4319465e-09	1.0826625e-08	-0.89331925	-5.0002097e-10	-4.999981e-10	0
6.300080979920887e-10	4.1909516e-09	-1.8626451e-09	-0.89331925	-5.000248e-10	-5.000038e-10	0
6.400202686976666e-10	-5.7334546e-09	3.4924597e-09	-0.8933193	-5.000191e-10	-4.999733e-10	0
6.50032466689154e-10	3.259629e-09	8.4983185e-09	-0.89331925	-5.000114e-10	-4.999981e-10	0
6.600078262809528e-10	-4.5693014e-09	-9.080395e-09	-0.89331925	-5.000305e-10	-4.9998855e-10	0
6.700200412304435e-10	2.9685907e-09	-3.1432137e-09	-0.89331925	-5.0001525e-10	-4.999981e-10	0
6.800322129783636e-10	2.240995e-09	4.307367e-09	-0.89331925	-5.000114e-10	-5.000057e-10	0
6.900075659890744e-10	6.9849193e-10	-8.265488e-09	-0.89331925	-5.000191e-10	-5e-10	0
7.000197620572451e-10	1.6007107e-09	7.21775e-09	-0.89331925	-5.000305e-10	-5.000057e-10	0
7.100319042978626e-10	-3.5797711e-09	-7.683411e-09	-0.89331925	-5.0001714e-10	-5.000191e-10	0
7.200072608391887e-10	5.7334546e-09	5.355105e-09	-0.89331925	-5.000324e-10	-5.0002097e-10	0
7.300194475434819e-10	1.1350494e-09	-5.122274e-09	-0.89331925	-5.0000953e-10	-5.000057e-10	0
7.400316414602494e-10	-7.858034e-10	-9.313226e-10	-0.89331925	-5.0001336e-10	-4.99979e-10	0
7.500070092272746e-10	3.085006e-09	-3.4924597e-09	-0.89331925	-5.000191e-10	-4.999924e-10	0
7.600192133770543e-10	-6.199116e-09	7.450581e-09	-0.89331925	-5.0000193e-10	-4.999981e-10	0
7.700313740013551e-10	7.1304385e-09	-1.6298145e-09	-0.89331925	-5.000038e-10	-5.000057e-10	0
7.800067462564865e-10	-6.4610504e-09	6.6356733e-09	-0.89331925	-5.0000193e-10	-5.000038e-10	0
7.900189029054501e-10	-1.8044375e-09	-4.1909516e-09	-0.8933193	-5.0000953e-10	-5.0000953e-10	0
8.000310701606473e-10	7.5961e-09	8.265488e-09	-0.8933193	-5.000267e-10	-5e-10	0
8.100064414375516e-10	-7.683411e-09	-1.1641532e-09	-0.89331925	-5.0001336e-10	-5.0000765e-10	0
8.200186154690371e-10	7.887138e-09	7.683411e-09	-0.89331925	-5.0002097e-10	-5.000191e-10	0
8.300307974621904e-10	-7.625204e-09	-4.1909516e-09	-0.89331925	-5.000267e-10	-5.000057e-10	0
8.4000616593495e-10	8.236384e-09	3.4924597e-09	-0.89331925	-5.000229e-10	-5.0002863e-10	0
8.500182916014811e-10	-2.9394869e-09	-2.4447218e-09	-0.89331925	-5.0001525e-10	-4.9998855e-10	0
8.60030484585618e-10	5.5588316e-09	-1.1641532e-10	-0.8933193	-5.0002863e-10	-4.9999044e-10	0
8.700058501026414e-10	-6.2573235e-09	5.820766e-10	-0.89331925	-5.000191e-10	-4.9999044e-10	0
8.800180044702441e-10	6.9849193e-10	-2.561137e-09	-0.89331925	-5.000114e-10	-4.999924e-10	0
8.900301906442551e-10	7.21775e-09	2.0954758e-09	-0.89331925	-5.0004006e-10	-4.999981e-10	0
9.000055329254315e-10	-5.8789738e-09	8.1490725e-09	-0.89331925	-5.0000953e-10	-5.0000953e-10	0
9.100176931960094e-10	1.5133992e-09	-5.355105e-09	-0.89331925	-5.000191e-10	-5.000057e-10	0
9.200298381149482e-10	3.958121e-09	3.958121e-09	-0.89331925	-5.000229e-10	-4.9999044e-10	0
9.300051886216448e-10	-5.529728e-10	7.21775e-09	-0.89331925	-5.0002863e-10	-5.000114e-10	0
9.400173580346985e-10	-1.4551915e-09	-2.7939677e-09	-0.89331925	-5.000191e-10	-4.9999427e-10	0
9.500295134623077e-10	3.8708095e-09	3.0267984e-09	-0.89331925	-5.0003435e-10	-5.000248e-10	0
9.600048947019112e-10	-3.6670826e-09	-4.8894435e-09	-0.89331925	-5.0002863e-10	-5e-10	0
9.700170406379684e-10	6.9267116e-09	4.8894435e-09	-0.89331925	-5.0002863e-10	-5.000038e-10	0
9.800292140288667e-10	-4.1618478e-09	1.1641532e-10	-0.89331925	-5.000229e-10	-4.9999044e-10	0
9.900045463031984e-10	3.9872248e-09	1.6298145e-09	-0.89331925	-5.000191e-10	-4.999962e-10	0
1e-09	-5.675247e-09	-2.3283064e-10	-0.89331925	-5.000439e-10	-5.0001336e-10	0
