# vtk DataFile Version 2.0

ASCII
DATASET RECTILINEAR_GRID
DIMENSIONS 61 61 2
X_COORDINATES 61 double
0.0 2.0 4.0 6.0 8.0 10.0 12.0 14.0 16.0 18.0 20.0 22.0 24.0 26.0 28.0 30.0 32.0 34.0 36.0 38.0 40.0 42.0 44.0 46.0 48.0 50.0 52.0 54.0 56.0 58.0 60.0 62.0 64.0 66.0 68.0 70.0 72.0 74.0 76.0 78.0 80.0 82.0 84.0 86.0 88.0 90.0 92.0 94.0 96.0 98.0 100.0 102.0 104.0 106.0 108.0 110.0 112.0 114.0 116.0 118.0 120.0
Y_COORDINATES 61 double
0.0 2.0 4.0 6.0 8.0 10.0 12.0 14.0 16.0 18.0 20.0 22.0 24.0 26.0 28.0 30.0 32.0 34.0 36.0 38.0 40.0 42.0 44.0 46.0 48.0 50.0 52.0 54.0 56.0 58.0 60.0 62.0 64.0 66.0 68.0 70.0 72.0 74.0 76.0 78.0 80.0 82.0 84.0 86.0 88.0 90.0 92.0 94.0 96.0 98.0 100.0 102.0 104.0 106.0 108.0 110.0 112.0 114.0 116.0 118.0 120.0
Z_COORDINATES 2 double
0.0 2.0
CELL_DATA 3600
SCALARS M_s double 1
LOOKUP_TABLE default
0.0 0.0 0.0 0.0 0.0 0.0 0.0 0.0 0.0 0.0 0.0 0.0 0.0 0.0 0.0 0.0 0.0 0.0 0.0 0.0 0.0 0.0 0.0 0.0 0.0 860000.0 860000.0 860000.0 860000.0 860000.0 860000.0 860000.0 860000.0 860000.0 860000.0 0.0 0.0 0.0 0.0 0.0 0.0 0.0 0.0 0.0 0.0 0.0 0.0 0.0 0.0 0.0 0.0 0.0 0.0 0.0 0.0 0.0 0.0 0.0 0.0 0.0 0.0 0.0 0.0 0.0 0.0 0.0 0.0 0.0 0.0 0.0 0.0 0.0 0.0 0.0 0.0 0.0 0.0 0.0 0.0 0.0 0.0 860000.0 860000.0 860000.0 860000.0 860000.0 860000.0 860000.0 860000.0 860000.0 860000.0 860000.0 860000.0 860000.0 860000.0 860000.0 860000.0 860000.0 860000.0 0.0 0.0 0.0 0.0 0.0 0.0 0.0 0.0 0.0 0.0 0.0 0.0 0.0 0.0 0.0 0.0 0.0 0.0 0.0 0.0 0.0 0.0 0.0 0.0 0.0 0.0 0.0 0.0 0.0 0.0 0.0 0.0 0.0 0.0 0.0 0.0 0.0 0.0 0.0 860000.0 860000.0 860000.0 860000.0 860000.0 860000.0 860000.0 860000.0 860000.0 860000.0 860000.0 860000.0 860000.0 860000.0 860000.0 860000.0 860000.0 860000.0 860000.0 860000.0 860000.0 860000.0 860000.0 860000.0 0.0 0.0 0.0 0.0 0.0 0.0 0.0 0.0 0.0 0.0 0.0 0.0 0.0 0.0 0.0 0.0 0.0 0.0 0.0 0.0 0.0 0.0 0.0 0.0 0.0 0.0 0.0 0.0 0.0 0.0 0.0 0.0 0.0 0.0 860000.0 860000.0 860000.0 860000.0 860000.0 860000.0 860000.0 860000.0 860000.0 860000.0 860000.0 860000.0 860000.0 860000.0 860000.0 860000.0 860000.0 860000.0 860000.0 860000.0 860000.0 860000.0 860000.0 860000.0 860000.0 860000.0 860000.0 860000.0 0.0 0.0 0.0 0.0 0.0 0.0 0.0 0.0 0.0 0.0 0.0 0.0 0.0 0.0 0.0 0.0 0.0 0.0 0.0 0.0 0.0 0.0 0.0 0.0 0.0 0.0 0.0 0.0 0.0 0.0 860000.0 860000.0 860000.0 860000.0 860000.0 860000.0 860000.0 860000.0 860000.0 860000.0 860000.0 860000.0 860000.0 860000.0 860000.0 860000.0 860000.0 860000.0 860000.0 860000.0 860000.0 860000.0 860000.0 860000.0 860000.0 860000.0 860000.0 860000.0 860000.0 860000.0 860000.0 860000.0 0.0 0.0 0.0 0.0 0.0 0.0 0.0 0.0 0.0 0.0 0.0 0.0 0.0 0.0 0.0 0.0 0.0 0.0 0.0 0.0 0.0 0.0 0.0 0.0 0.0 0.0 0.0 860000.0 860000.0 860000.0 860000.0 860000.0 860000.0 860000.0 860000.0 860000.0 860000.0 860000.0 860000.0 860000.0 860000.0 860000.0 860000.0 860000.0 860000.0 860000.0 860000.0 860000.0 860000.0 860000.0 860000.0 860000.0 860000.0 860000.0 860000.0 860000.0 860000.0 860000.0 860000.0 860000.0 860000.0 0.0 0.0 0.0 0.0 0.0 0.0 0.0 0.0 0.0 0.0 0.0 0.0 0.0 0.0 0.0 0.0 0.0 0.0 0.0 0.0 0.0 0.0 0.0 0.0 860000.0 860000.0 860000.0 860000.0 860000.0 860000.0 860000.0 860000.0 860000.0 860000.0 860000.0 860000.0 860000.0 860000.0 860000.0 860000.0 860000.0 860000.0 860000.0 860000.0 860000.0 860000.0 860000.0 860000.0 860000.0 860000.0 860000.0 860000.0 860000.0 860000.0 860000.0 860000.0 860000.0 860000.0 860000.0 860000.0 860000.0 860000.0 0.0 0.0 0.0 0.0 0.0 0.0 0.0 0.0 0.0 0.0 0.0 0.0 0.0 0.0 0.0 0.0 0.0 0.0 0.0 0.0 0.0 860000.0 860000.0 860000.0 860000.0 860000.0 860000.0 860000.0 860000.0 860000.0 860000.0 860000.0 860000.0 860000.0 860000.0 860000.0 860000.0 860000.0 860000.0 860000.0 860000.0 860000.0 860000.0 860000.0 860000.0 860000.0 860000.0 860000.0 860000.0 860000.0 860000.0 860000.0 860000.0 860000.0 860000.0 860000.0 860000.0 860000.0 860000.0 860000.0 860000.0 0.0 0.0 0.0 0.0 0.0 0.0 0.0 0.0 0.0 0.0 0.0 0.0 0.0 0.0 0.0 0.0 0.0 0.0 0.0 860000.0 860000.0 860000.0 860000.0 860000.0 860000.0 860000.0 860000.0 860000.0 860000.0 860000.0 860000.0 860000.0 860000.0 860000.0 860000.0 860000.0 860000.0 860000.0 860000.0 860000.0 860000.0 860000.0 860000.0 860000.0 860000.0 860000.0 860000.0 860000.0 860000.0 860000.0 860000.0 860000.0 860000.0 860000.0 860000.0 860000.0 860000.0 860000.0 860000.0 860000.0 860000.0 0.0 0.0 0.0 0.0 0.0 0.0 0.0 0.0 0.0 0.0 0.0 0.0 0.0 0.0 0.0 0.0 0.0 860000.0 860000.0 860000.0 860000.0 860000.0 860000.0 860000.0 860000.0 860000.0 860000.0 860000.0 860000.0 860000.0 860000.0 860000.0 860000.0 860000.0 860000.0 860000.0 860000.0 860000.0 860000.0 860000.0 860000.0 860000.0 860000.0 860000.0 860000.0 860000.0 860000.0 860000.0 860000.0 860000.0 860000.0 860000.0 860000.0 860000.0 860000.0 860000.0 860000.0 860000.0 860000.0 860000.0 860000.0 0.0 0.0 0.0 0.0 0.0 0.0 0.0 0.0 0.0 0.0 0.0 0.0 0.0 0.0 0.0 860000.0 860000.0 860000.0 860000.0 860000.0 860000.0 860000.0 860000.0 860000.0 860000.0 860000.0 860000.0 860000.0 860000.0 860000.0 860000.0 860000.0 860000.0 860000.0 860000.0 860000.0 860000.0 860000.0 860000.0 860000.0 860000.0 860000.0 860000.0 860000.0 860000.0 860000.0 860000.0 860000.0 860000.0 860000.0 860000.0 860000.0 860000.0 860000.0 860000.0 860000.0 860000.0 860000.0 860000.0 860000.0 860000.0 0.0 0.0 0.0 0.0 0.0 0.0 0.0 0.0 0.0 0.0 0.0 0.0 0.0 860000.0 860000.0 860000.0 860000.0 860000.0 860000.0 860000.0 860000.0 860000.0 860000.0 860000.0 860000.0 860000.0 860000.0 860000.0 860000.0 860000.0 860000.0 860000.0 860000.0 860000.0 860000.0 860000.0 860000.0 860000.0 860000.0 860000.0 860000.0 860000.0 860000.0 860000.0 860000.0 860000.0 860000.0 860000.0 860000.0 860000.0 860000.0 860000.0 860000.0 860000.0 860000.0 860000.0 860000.0 860000.0 860000.0 860000.0 860000.0 0.0 0.0 0.0 0.0 0.0 0.0 0.0 0.0 0.0 0.0 0.0 0.0 860000.0 860000.0 860000.0 860000.0 860000.0 860000.0 860000.0 860000.0 860000.0 860000.0 860000.0 860000.0 860000.0 860000.0 860000.0 860000.0 860000.0 860000.0 860000.0 860000.0 860000.0 860000.0 860000.0 860000.0 860000.0 860000.0 860000.0 860000.0 860000.0 860000.0 860000.0 860000.0 860000.0 860000.0 860000.0 860000.0 860000.0 860000.0 860000.0 860000.0 860000.0 860000.0 860000.0 860000.0 860000.0 860000.0 860000.0 860000.0 0.0 0.0 0.0 0.0 0.0 0.0 0.0 0.0 0.0 0.0 0.0 860000.0 860000.0 860000.0 860000.0 860000.0 860000.0 860000.0 860000.0 860000.0 860000.0 860000.0 860000.0 860000.0 860000.0 860000.0 860000.0 860000.0 860000.0 860000.0 860000.0 860000.0 860000.0 860000.0 860000.0 860000.0 860000.0 860000.0 860000.0 860000.0 860000.0 860000.0 860000.0 860000.0 860000.0 860000.0 860000.0 860000.0 860000.0 860000.0 860000.0 860000.0 860000.0 860000.0 860000.0 860000.0 860000.0 860000.0 860000.0 860000.0 860000.0 0.0 0.0 0.0 0.0 0.0 0.0 0.0 0.0 0.0 860000.0 860000.0 860000.0 860000.0 860000.0 860000.0 860000.0 860000.0 860000.0 860000.0 860000.0 860000.0 860000.0 860000.0 860000.0 860000.0 860000.0 860000.0 860000.0 860000.0 860000.0 860000.0 860000.0 860000.0 860000.0 860000.0 860000.0 860000.0 860000.0 860000.0 860000.0 860000.0 860000.0 860000.0 860000.0 860000.0 860000.0 860000.0 860000.0 860000.0 860000.0 860000.0 860000.0 860000.0 860000.0 860000.0 860000.0 860000.0 860000.0 860000.0 860000.0 860000.0 0.0 0.0 0.0 0.0 0.0 0.0 0.0 0.0 860000.0 860000.0 860000.0 860000.0 860000.0 860000.0 860000.0 860000.0 860000.0 860000.0 860000.0 860000.0 860000.0 860000.0 860000.0 860000.0 860000.0 860000.0 860000.0 860000.0 860000.0 860000.0 860000.0 860000.0 860000.0 860000.0 860000.0 860000.0 860000.0 860000.0 860000.0 860000.0 860000.0 860000.0 860000.0 860000.0 860000.0 860000.0 860000.0 860000.0 860000.0 860000.0 860000.0 860000.0 860000.0 860000.0 860000.0 860000.0 860000.0 860000.0 860000.0 860000.0 0.0 0.0 0.0 0.0 0.0 0.0 0.0 860000.0 860000.0 860000.0 860000.0 860000.0 860000.0 860000.0 860000.0 860000.0 860000.0 860000.0 860000.0 860000.0 860000.0 860000.0 860000.0 860000.0 860000.0 860000.0 860000.0 860000.0 860000.0 860000.0 860000.0 860000.0 860000.0 860000.0 860000.0 860000.0 860000.0 860000.0 860000.0 860000.0 860000.0 860000.0 860000.0 860000.0 860000.0 860000.0 860000.0 860000.0 860000.0 860000.0 860000.0 860000.0 860000.0 860000.0 860000.0 860000.0 860000.0 860000.0 860000.0 860000.0 860000.0 0.0 0.0 0.0 0.0 0.0 0.0 860000.0 860000.0 860000.0 860000.0 860000.0 860000.0 860000.0 860000.0 860000.0 860000.0 860000.0 860000.0 860000.0 860000.0 860000.0 860000.0 860000.0 860000.0 860000.0 860000.0 860000.0 860000.0 860000.0 860000.0 860000.0 860000.0 860000.0 860000.0 860000.0 860000.0 860000.0 860000.0 860000.0 860000.0 860000.0 860000.0 860000.0 860000.0 860000.0 860000.0 860000.0 860000.0 860000.0 860000.0 860000.0 860000.0 860000.0 860000.0 860000.0 860000.0 860000.0 860000.0 860000.0 860000.0 0.0 0.0 0.0 0.0 0.0 860000.0 860000.0 860000.0 860000.0 860000.0 860000.0 860000.0 860000.0 860000.0 860000.0 860000.0 860000.0 860000.0 860000.0 860000.0 860000.0 860000.0 860000.0 860000.0 860000.0 860000.0 860000.0 860000.0 860000.0 860000.0 860000.0 860000.0 860000.0 860000.0 860000.0 860000.0 860000.0 860000.0 860000.0 860000.0 860000.0 860000.0 860000.0 860000.0 860000.0 860000.0 860000.0 860000.0 860000.0 860000.0 860000.0 860000.0 860000.0 860000.0 860000.0 860000.0 860000.0 860000.0 860000.0 860000.0 860000.0 0.0 0.0 0.0 0.0 860000.0 860000.0 860000.0 860000.0 860000.0 860000.0 860000.0 860000.0 860000.0 860000.0 860000.0 860000.0 860000.0 860000.0 860000.0 860000.0 860000.0 860000.0 860000.0 860000.0 860000.0 860000.0 860000.0 860000.0 860000.0 860000.0 860000.0 860000.0 860000.0 860000.0 860000.0 860000.0 860000.0 860000.0 860000.0 860000.0 860000.0 860000.0 860000.0 860000.0 860000.0 860000.0 860000.0 860000.0 860000.0 860000.0 860000.0 860000.0 860000.0 860000.0 860000.0 860000.0 860000.0 860000.0 860000.0 860000.0 0.0 0.0 0.0 0.0 860000.0 860000.0 860000.0 860000.0 860000.0 860000.0 860000.0 860000.0 860000.0 860000.0 860000.0 860000.0 860000.0 860000.0 860000.0 860000.0 860000.0 860000.0 860000.0 860000.0 860000.0 860000.0 860000.0 860000.0 860000.0 860000.0 860000.0 860000.0 860000.0 860000.0 860000.0 860000.0 860000.0 860000.0 860000.0 860000.0 860000.0 860000.0 860000.0 860000.0 860000.0 860000.0 860000.0 860000.0 860000.0 860000.0 860000.0 860000.0 860000.0 860000.0 860000.0 860000.0 860000.0 860000.0 860000.0 860000.0 0.0 0.0 0.0 860000.0 860000.0 860000.0 860000.0 860000.0 860000.0 860000.0 860000.0 860000.0 860000.0 860000.0 860000.0 860000.0 860000.0 860000.0 860000.0 860000.0 860000.0 860000.0 860000.0 860000.0 860000.0 860000.0 860000.0 860000.0 860000.0 860000.0 860000.0 860000.0 860000.0 860000.0 860000.0 860000.0 860000.0 860000.0 860000.0 860000.0 860000.0 860000.0 860000.0 860000.0 860000.0 860000.0 860000.0 860000.0 860000.0 860000.0 860000.0 860000.0 860000.0 860000.0 860000.0 860000.0 860000.0 860000.0 860000.0 860000.0 860000.0 0.0 0.0 860000.0 860000.0 860000.0 860000.0 860000.0 860000.0 860000.0 860000.0 860000.0 860000.0 860000.0 860000.0 860000.0 860000.0 860000.0 860000.0 860000.0 860000.0 860000.0 860000.0 860000.0 860000.0 860000.0 860000.0 860000.0 860000.0 860000.0 860000.0 860000.0 860000.0 860000.0 860000.0 860000.0 860000.0 860000.0 860000.0 860000.0 860000.0 860000.0 860000.0 860000.0 860000.0 860000.0 860000.0 860000.0 860000.0 860000.0 860000.0 860000.0 860000.0 860000.0 860000.0 860000.0 860000.0 860000.0 860000.0 860000.0 860000.0 0.0 0.0 860000.0 860000.0 860000.0 860000.0 860000.0 860000.0 860000.0 860000.0 860000.0 860000.0 860000.0 860000.0 860000.0 860000.0 860000.0 860000.0 860000.0 860000.0 860000.0 860000.0 860000.0 860000.0 860000.0 860000.0 860000.0 860000.0 860000.0 860000.0 860000.0 860000.0 860000.0 860000.0 860000.0 860000.0 860000.0 860000.0 860000.0 860000.0 860000.0 860000.0 860000.0 860000.0 860000.0 860000.0 860000.0 860000.0 860000.0 860000.0 860000.0 860000.0 860000.0 860000.0 860000.0 860000.0 860000.0 860000.0 860000.0 860000.0 0.0 0.0 860000.0 860000.0 860000.0 860000.0 860000.0 860000.0 860000.0 860000.0 860000.0 860000.0 860000.0 860000.0 860000.0 860000.0 860000.0 860000.0 860000.0 860000.0 860000.0 860000.0 860000.0 860000.0 860000.0 860000.0 860000.0 860000.0 860000.0 860000.0 860000.0 860000.0 860000.0 860000.0 860000.0 860000.0 860000.0 860000.0 860000.0 860000.0 860000.0 860000.0 860000.0 860000.0 860000.0 860000.0 860000.0 860000.0 860000.0 860000.0 860000.0 860000.0 860000.0 860000.0 860000.0 860000.0 860000.0 860000.0 860000.0 860000.0 0.0 860000.0 860000.0 860000.0 860000.0 860000.0 860000.0 860000.0 860000.0 860000.0 860000.0 860000.0 860000.0 860000.0 860000.0 860000.0 860000.0 860000.0 860000.0 860000.0 860000.0 860000.0 860000.0 860000.0 860000.0 860000.0 860000.0 860000.0 860000.0 860000.0 860000.0 860000.0 860000.0 860000.0 860000.0 860000.0 860000.0 860000.0 860000.0 860000.0 860000.0 860000.0 860000.0 860000.0 860000.0 860000.0 860000.0 860000.0 860000.0 860000.0 860000.0 860000.0 860000.0 860000.0 860000.0 860000.0 860000.0 860000.0 860000.0 860000.0 860000.0 860000.0 860000.0 860000.0 860000.0 860000.0 860000.0 860000.0 860000.0 860000.0 860000.0 860000.0 860000.0 860000.0 860000.0 860000.0 860000.0 860000.0 860000.0 860000.0 860000.0 860000.0 860000.0 860000.0 860000.0 860000.0 860000.0 860000.0 860000.0 860000.0 860000.0 860000.0 860000.0 860000.0 860000.0 860000.0 860000.0 860000.0 860000.0 860000.0 860000.0 860000.0 860000.0 860000.0 860000.0 860000.0 860000.0 860000.0 860000.0 860000.0 860000.0 860000.0 860000.0 860000.0 860000.0 860000.0 860000.0 860000.0 860000.0 860000.0 860000.0 860000.0 860000.0 860000.0 860000.0 860000.0 860000.0 860000.0 860000.0 860000.0 860000.0 860000.0 860000.0 860000.0 860000.0 860000.0 860000.0 860000.0 860000.0 860000.0 860000.0 860000.0 860000.0 860000.0 860000.0 860000.0 860000.0 860000.0 860000.0 860000.0 860000.0 860000.0 860000.0 860000.0 860000.0 860000.0 860000.0 860000.0 860000.0 860000.0 860000.0 860000.0 860000.0 860000.0 860000.0 860000.0 860000.0 860000.0 860000.0 860000.0 860000.0 860000.0 860000.0 860000.0 860000.0 860000.0 860000.0 860000.0 860000.0 860000.0 860000.0 860000.0 860000.0 860000.0 860000.0 860000.0 860000.0 860000.0 860000.0 860000.0 860000.0 860000.0 860000.0 860000.0 860000.0 860000.0 860000.0 860000.0 860000.0 860000.0 860000.0 860000.0 860000.0 860000.0 860000.0 860000.0 860000.0 860000.0 860000.0 860000.0 860000.0 860000.0 860000.0 860000.0 860000.0 860000.0 860000.0 860000.0 860000.0 860000.0 860000.0 860000.0 860000.0 860000.0 860000.0 860000.0 860000.0 860000.0 860000.0 860000.0 860000.0 860000.0 860000.0 860000.0 860000.0 860000.0 860000.0 860000.0 860000.0 860000.0 860000.0 860000.0 860000.0 860000.0 860000.0 860000.0 860000.0 860000.0 860000.0 860000.0 860000.0 860000.0 860000.0 860000.0 860000.0 860000.0 860000.0 860000.0 860000.0 860000.0 860000.0 860000.0 860000.0 860000.0 860000.0 860000.0 860000.0 860000.0 860000.0 860000.0 860000.0 860000.0 860000.0 860000.0 860000.0 860000.0 860000.0 860000.0 860000.0 860000.0 860000.0 860000.0 860000.0 860000.0 860000.0 860000.0 860000.0 860000.0 860000.0 860000.0 860000.0 860000.0 860000.0 860000.0 860000.0 860000.0 860000.0 860000.0 860000.0 860000.0 860000.0 860000.0 860000.0 860000.0 860000.0 860000.0 860000.0 860000.0 860000.0 860000.0 860000.0 860000.0 860000.0 860000.0 860000.0 860000.0 860000.0 860000.0 860000.0 860000.0 860000.0 860000.0 860000.0 860000.0 860000.0 860000.0 860000.0 860000.0 860000.0 860000.0 860000.0 860000.0 860000.0 860000.0 860000.0 860000.0 860000.0 860000.0 860000.0 860000.0 860000.0 860000.0 860000.0 860000.0 860000.0 860000.0 860000.0 860000.0 860000.0 860000.0 860000.0 860000.0 860000.0 860000.0 860000.0 860000.0 860000.0 860000.0 860000.0 860000.0 860000.0 860000.0 860000.0 860000.0 860000.0 860000.0 860000.0 860000.0 860000.0 860000.0 860000.0 860000.0 860000.0 860000.0 860000.0 860000.0 860000.0 860000.0 860000.0 860000.0 860000.0 860000.0 860000.0 860000.0 860000.0 860000.0 860000.0 860000.0 860000.0 860000.0 860000.0 860000.0 860000.0 860000.0 860000.0 860000.0 860000.0 860000.0 860000.0 860000.0 860000.0 860000.0 860000.0 860000.0 860000.0 860000.0 860000.0 860000.0 860000.0 860000.0 860000.0 860000.0 860000.0 860000.0 860000.0 860000.0 860000.0 860000.0 860000.0 860000.0 860000.0 860000.0 860000.0 860000.0 860000.0 860000.0 860000.0 860000.0 860000.0 860000.0 860000.0 860000.0 860000.0 860000.0 860000.0 860000.0 860000.0 860000.0 860000.0 860000.0 860000.0 860000.0 860000.0 860000.0 860000.0 860000.0 860000.0 860000.0 860000.0 860000.0 860000.0 860000.0 860000.0 860000.0 860000.0 860000.0 860000.0 860000.0 860000.0 860000.0 860000.0 860000.0 860000.0 860000.0 860000.0 860000.0 860000.0 860000.0 860000.0 860000.0 860000.0 860000.0 860000.0 860000.0 860000.0 860000.0 860000.0 860000.0 860000.0 860000.0 860000.0 860000.0 860000.0 860000.0 860000.0 860000.0 860000.0 860000.0 860000.0 860000.0 860000.0 860000.0 860000.0 860000.0 860000.0 860000.0 860000.0 860000.0 860000.0 860000.0 860000.0 860000.0 860000.0 860000.0 860000.0 860000.0 860000.0 860000.0 860000.0 860000.0 860000.0 860000.0 860000.0 860000.0 860000.0 860000.0 860000.0 860000.0 860000.0 860000.0 860000.0 860000.0 860000.0 860000.0 860000.0 860000.0 860000.0 860000.0 860000.0 860000.0 860000.0 860000.0 860000.0 860000.0 860000.0 860000.0 860000.0 860000.0 860000.0 860000.0 860000.0 860000.0 860000.0 860000.0 860000.0 860000.0 860000.0 860000.0 860000.0 860000.0 860000.0 860000.0 860000.0 860000.0 860000.0 860000.0 860000.0 860000.0 860000.0 860000.0 860000.0 860000.0 860000.0 860000.0 860000.0 860000.0 860000.0 860000.0 860000.0 860000.0 860000.0 860000.0 860000.0 860000.0 860000.0 860000.0 860000.0 860000.0 860000.0 860000.0 860000.0 860000.0 860000.0 860000.0 860000.0 860000.0 860000.0 860000.0 860000.0 860000.0 860000.0 860000.0 860000.0 860000.0 860000.0 860000.0 860000.0 860000.0 860000.0 860000.0 860000.0 0.0 860000.0 860000.0 860000.0 860000.0 860000.0 860000.0 860000.0 860000.0 860000.0 860000.0 860000.0 860000.0 860000.0 860000.0 860000.0 860000.0 860000.0 860000.0 860000.0 860000.0 860000.0 860000.0 860000.0 860000.0 860000.0 860000.0 860000.0 860000.0 860000.0 860000.0 860000.0 860000.0 860000.0 860000.0 860000.0 860000.0 860000.0 860000.0 860000.0 860000.0 860000.0 860000.0 860000.0 860000.0 860000.0 860000.0 860000.0 860000.0 860000.0 860000.0 860000.0 860000.0 860000.0 860000.0 860000.0 860000.0 860000.0 860000.0 0.0 0.0 860000.0 860000.0 860000.0 860000.0 860000.0 860000.0 860000.0 860000.0 860000.0 860000.0 860000.0 860000.0 860000.0 860000.0 860000.0 860000.0 860000.0 860000.0 860000.0 860000.0 860000.0 860000.0 860000.0 860000.0 860000.0 860000.0 860000.0 860000.0 860000.0 860000.0 860000.0 860000.0 860000.0 860000.0 860000.0 860000.0 860000.0 860000.0 860000.0 860000.0 860000.0 860000.0 860000.0 860000.0 860000.0 860000.0 860000.0 860000.0 860000.0 860000.0 860000.0 860000.0 860000.0 860000.0 860000.0 860000.0 860000.0 860000.0 0.0 0.0 860000.0 860000.0 860000.0 860000.0 860000.0 860000.0 860000.0 860000.0 860000.0 860000.0 860000.0 860000.0 860000.0 860000.0 860000.0 860000.0 860000.0 860000.0 860000.0 860000.0 860000.0 860000.0 860000.0 860000.0 860000.0 860000.0 860000.0 860000.0 860000.0 860000.0 860000.0 860000.0 860000.0 860000.0 860000.0 860000.0 860000.0 860000.0 860000.0 860000.0 860000.0 860000.0 860000.0 860000.0 860000.0 860000.0 860000.0 860000.0 860000.0 860000.0 860000.0 860000.0 860000.0 860000.0 860000.0 860000.0 860000.0 860000.0 0.0 0.0 860000.0 860000.0 860000.0 860000.0 860000.0 860000.0 860000.0 860000.0 860000.0 860000.0 860000.0 860000.0 860000.0 860000.0 860000.0 860000.0 860000.0 860000.0 860000.0 860000.0 860000.0 860000.0 860000.0 860000.0 860000.0 860000.0 860000.0 860000.0 860000.0 860000.0 860000.0 860000.0 860000.0 860000.0 860000.0 860000.0 860000.0 860000.0 860000.0 860000.0 860000.0 860000.0 860000.0 860000.0 860000.0 860000.0 860000.0 860000.0 860000.0 860000.0 860000.0 860000.0 860000.0 860000.0 860000.0 860000.0 860000.0 860000.0 0.0 0.0 0.0 860000.0 860000.0 860000.0 860000.0 860000.0 860000.0 860000.0 860000.0 860000.0 860000.0 860000.0 860000.0 860000.0 860000.0 860000.0 860000.0 860000.0 860000.0 860000.0 860000.0 860000.0 860000.0 860000.0 860000.0 860000.0 860000.0 860000.0 860000.0 860000.0 860000.0 860000.0 860000.0 860000.0 860000.0 860000.0 860000.0 860000.0 860000.0 860000.0 860000.0 860000.0 860000.0 860000.0 860000.0 860000.0 860000.0 860000.0 860000.0 860000.0 860000.0 860000.0 860000.0 860000.0 860000.0 860000.0 860000.0 0.0 0.0 0.0 0.0 860000.0 860000.0 860000.0 860000.0 860000.0 860000.0 860000.0 860000.0 860000.0 860000.0 860000.0 860000.0 860000.0 860000.0 860000.0 860000.0 860000.0 860000.0 860000.0 860000.0 860000.0 860000.0 860000.0 860000.0 860000.0 860000.0 860000.0 860000.0 860000.0 860000.0 860000.0 860000.0 860000.0 860000.0 860000.0 860000.0 860000.0 860000.0 860000.0 860000.0 860000.0 860000.0 860000.0 860000.0 860000.0 860000.0 860000.0 860000.0 860000.0 860000.0 860000.0 860000.0 860000.0 860000.0 860000.0 860000.0 0.0 0.0 0.0 0.0 860000.0 860000.0 860000.0 860000.0 860000.0 860000.0 860000.0 860000.0 860000.0 860000.0 860000.0 860000.0 860000.0 860000.0 860000.0 860000.0 860000.0 860000.0 860000.0 860000.0 860000.0 860000.0 860000.0 860000.0 860000.0 860000.0 860000.0 860000.0 860000.0 860000.0 860000.0 860000.0 860000.0 860000.0 860000.0 860000.0 860000.0 860000.0 860000.0 860000.0 860000.0 860000.0 860000.0 860000.0 860000.0 860000.0 860000.0 860000.0 860000.0 860000.0 860000.0 860000.0 860000.0 860000.0 860000.0 860000.0 0.0 0.0 0.0 0.0 0.0 860000.0 860000.0 860000.0 860000.0 860000.0 860000.0 860000.0 860000.0 860000.0 860000.0 860000.0 860000.0 860000.0 860000.0 860000.0 860000.0 860000.0 860000.0 860000.0 860000.0 860000.0 860000.0 860000.0 860000.0 860000.0 860000.0 860000.0 860000.0 860000.0 860000.0 860000.0 860000.0 860000.0 860000.0 860000.0 860000.0 860000.0 860000.0 860000.0 860000.0 860000.0 860000.0 860000.0 860000.0 860000.0 860000.0 860000.0 860000.0 860000.0 860000.0 860000.0 860000.0 860000.0 860000.0 0.0 0.0 0.0 0.0 0.0 0.0 860000.0 860000.0 860000.0 860000.0 860000.0 860000.0 860000.0 860000.0 860000.0 860000.0 860000.0 860000.0 860000.0 860000.0 860000.0 860000.0 860000.0 860000.0 860000.0 860000.0 860000.0 860000.0 860000.0 860000.0 860000.0 860000.0 860000.0 860000.0 860000.0 860000.0 860000.0 860000.0 860000.0 860000.0 860000.0 860000.0 860000.0 860000.0 860000.0 860000.0 860000.0 860000.0 860000.0 860000.0 860000.0 860000.0 860000.0 860000.0 860000.0 860000.0 860000.0 860000.0 860000.0 860000.0 0.0 0.0 0.0 0.0 0.0 0.0 0.0 860000.0 860000.0 860000.0 860000.0 860000.0 860000.0 860000.0 860000.0 860000.0 860000.0 860000.0 860000.0 860000.0 860000.0 860000.0 860000.0 860000.0 860000.0 860000.0 860000.0 860000.0 860000.0 860000.0 860000.0 860000.0 860000.0 860000.0 860000.0 860000.0 860000.0 860000.0 860000.0 860000.0 860000.0 860000.0 860000.0 860000.0 860000.0 860000.0 860000.0 860000.0 860000.0 860000.0 860000.0 860000.0 860000.0 860000.0 860000.0 860000.0 860000.0 860000.0 860000.0 0.0 0.0 0.0 0.0 0.0 0.0 0.0 0.0 860000.0 860000.0 860000.0 860000.0 860000.0 860000.0 860000.0 860000.0 860000.0 860000.0 860000.0 860000.0 860000.0 860000.0 860000.0 860000.0 860000.0 860000.0 860000.0 860000.0 860000.0 860000.0 860000.0 860000.0 860000.0 860000.0 860000.0 860000.0 860000.0 860000.0 860000.0 860000.0 860000.0 860000.0 860000.0 860000.0 860000.0 860000.0 860000.0 860000.0 860000.0 860000.0 860000.0 860000.0 860000.0 860000.0 860000.0 860000.0 860000.0 860000.0 860000.0 860000.0 0.0 0.0 0.0 0.0 0.0 0.0 0.0 0.0 0.0 860000.0 860000.0 860000.0 860000.0 860000.0 860000.0 860000.0 860000.0 860000.0 860000.0 860000.0 860000.0 860000.0 860000.0 860000.0 860000.0 860000.0 860000.0 860000.0 860000.0 860000.0 860000.0 860000.0 860000.0 860000.0 860000.0 860000.0 860000.0 860000.0 860000.0 860000.0 860000.0 860000.0 860000.0 860000.0 860000.0 860000.0 860000.0 860000.0 860000.0 860000.0 860000.0 860000.0 860000.0 860000.0 860000.0 860000.0 860000.0 860000.0 860000.0 0.0 0.0 0.0 0.0 0.0 0.0 0.0 0.0 0.0 0.0 0.0 860000.0 860000.0 860000.0 860000.0 860000.0 860000.0 860000.0 860000.0 860000.0 860000.0 860000.0 860000.0 860000.0 860000.0 860000.0 860000.0 860000.0 860000.0 860000.0 860000.0 860000.0 860000.0 860000.0 860000.0 860000.0 860000.0 860000.0 860000.0 860000.0 860000.0 860000.0 860000.0 860000.0 860000.0 860000.0 860000.0 860000.0 860000.0 860000.0 860000.0 860000.0 860000.0 860000.0 860000.0 860000.0 860000.0 860000.0 860000.0 0.0 0.0 0.0 0.0 0.0 0.0 0.0 0.0 0.0 0.0 0.0 0.0 860000.0 860000.0 860000.0 860000.0 860000.0 860000.0 860000.0 860000.0 860000.0 860000.0 860000.0 860000.0 860000.0 860000.0 860000.0 860000.0 860000.0 860000.0 860000.0 860000.0 860000.0 860000.0 860000.0 860000.0 860000.0 860000.0 860000.0 860000.0 860000.0 860000.0 860000.0 860000.0 860000.0 860000.0 860000.0 860000.0 860000.0 860000.0 860000.0 860000.0 860000.0 860000.0 860000.0 860000.0 860000.0 860000.0 860000.0 860000.0 0.0 0.0 0.0 0.0 0.0 0.0 0.0 0.0 0.0 0.0 0.0 0.0 0.0 860000.0 860000.0 860000.0 860000.0 860000.0 860000.0 860000.0 860000.0 860000.0 860000.0 860000.0 860000.0 860000.0 860000.0 860000.0 860000.0 860000.0 860000.0 860000.0 860000.0 860000.0 860000.0 860000.0 860000.0 860000.0 860000.0 860000.0 860000.0 860000.0 860000.0 860000.0 860000.0 860000.0 860000.0 860000.0 860000.0 860000.0 860000.0 860000.0 860000.0 860000.0 860000.0 860000.0 860000.0 860000.0 860000.0 0.0 0.0 0.0 0.0 0.0 0.0 0.0 0.0 0.0 0.0 0.0 0.0 0.0 0.0 0.0 860000.0 860000.0 860000.0 860000.0 860000.0 860000.0 860000.0 860000.0 860000.0 860000.0 860000.0 860000.0 860000.0 860000.0 860000.0 860000.0 860000.0 860000.0 860000.0 860000.0 860000.0 860000.0 860000.0 860000.0 860000.0 860000.0 860000.0 860000.0 860000.0 860000.0 860000.0 860000.0 860000.0 860000.0 860000.0 860000.0 860000.0 860000.0 860000.0 860000.0 860000.0 860000.0 860000.0 860000.0 0.0 0.0 0.0 0.0 0.0 0.0 0.0 0.0 0.0 0.0 0.0 0.0 0.0 0.0 0.0 0.0 0.0 860000.0 860000.0 860000.0 860000.0 860000.0 860000.0 860000.0 860000.0 860000.0 860000.0 860000.0 860000.0 860000.0 860000.0 860000.0 860000.0 860000.0 860000.0 860000.0 860000.0 860000.0 860000.0 860000.0 860000.0 860000.0 860000.0 860000.0 860000.0 860000.0 860000.0 860000.0 860000.0 860000.0 860000.0 860000.0 860000.0 860000.0 860000.0 860000.0 860000.0 860000.0 860000.0 0.0 0.0 0.0 0.0 0.0 0.0 0.0 0.0 0.0 0.0 0.0 0.0 0.0 0.0 0.0 0.0 0.0 0.0 0.0 860000.0 860000.0 860000.0 860000.0 860000.0 860000.0 860000.0 860000.0 860000.0 860000.0 860000.0 860000.0 860000.0 860000.0 860000.0 860000.0 860000.0 860000.0 860000.0 860000.0 860000.0 860000.0 860000.0 860000.0 860000.0 860000.0 860000.0 860000.0 860000.0 860000.0 860000.0 860000.0 860000.0 860000.0 860000.0 860000.0 860000.0 860000.0 860000.0 860000.0 0.0 0.0 0.0 0.0 0.0 0.0 0.0 0.0 0.0 0.0 0.0 0.0 0.0 0.0 0.0 0.0 0.0 0.0 0.0 0.0 0.0 860000.0 860000.0 860000.0 860000.0 860000.0 860000.0 860000.0 860000.0 860000.0 860000.0 860000.0 860000.0 860000.0 860000.0 860000.0 860000.0 860000.0 860000.0 860000.0 860000.0 860000.0 860000.0 860000.0 860000.0 860000.0 860000.0 860000.0 860000.0 860000.0 860000.0 860000.0 860000.0 860000.0 860000.0 860000.0 860000.0 860000.0 860000.0 0.0 0.0 0.0 0.0 0.0 0.0 0.0 0.0 0.0 0.0 0.0 0.0 0.0 0.0 0.0 0.0 0.0 0.0 0.0 0.0 0.0 0.0 0.0 0.0 860000.0 860000.0 860000.0 860000.0 860000.0 860000.0 860000.0 860000.0 860000.0 860000.0 860000.0 860000.0 860000.0 860000.0 860000.0 860000.0 860000.0 860000.0 860000.0 860000.0 860000.0 860000.0 860000.0 860000.0 860000.0 860000.0 860000.0 860000.0 860000.0 860000.0 860000.0 860000.0 860000.0 860000.0 0.0 0.0 0.0 0.0 0.0 0.0 0.0 0.0 0.0 0.0 0.0 0.0 0.0 0.0 0.0 0.0 0.0 0.0 0.0 0.0 0.0 0.0 0.0 0.0 0.0 0.0 0.0 860000.0 860000.0 860000.0 860000.0 860000.0 860000.0 860000.0 860000.0 860000.0 860000.0 860000.0 860000.0 860000.0 860000.0 860000.0 860000.0 860000.0 860000.0 860000.0 860000.0 860000.0 860000.0 860000.0 860000.0 860000.0 860000.0 860000.0 860000.0 860000.0 860000.0 860000.0 860000.0 0.0 0.0 0.0 0.0 0.0 0.0 0.0 0.0 0.0 0.0 0.0 0.0 0.0 0.0 0.0 0.0 0.0 0.0 0.0 0.0 0.0 0.0 0.0 0.0 0.0 0.0 0.0 0.0 0.0 0.0 860000.0 860000.0 860000.0 860000.0 860000.0 860000.0 860000.0 860000.0 860000.0 860000.0 860000.0 860000.0 860000.0 860000.0 860000.0 860000.0 860000.0 860000.0 860000.0 860000.0 860000.0 860000.0 860000.0 860000.0 860000.0 860000.0 860000.0 860000.0 0.0 0.0 0.0 0.0 0.0 0.0 0.0 0.0 0.0 0.0 0.0 0.0 0.0 0.0 0.0 0.0 0.0 0.0 0.0 0.0 0.0 0.0 0.0 0.0 0.0 0.0 0.0 0.0 0.0 0.0 0.0 0.0 0.0 0.0 860000.0 860000.0 860000.0 860000.0 860000.0 860000.0 860000.0 860000.0 860000.0 860000.0 860000.0 860000.0 860000.0 860000.0 860000.0 860000.0 860000.0 860000.0 860000.0 860000.0 860000.0 860000.0 860000.0 860000.0 0.0 0.0 0.0 0.0 0.0 0.0 0.0 0.0 0.0 0.0 0.0 0.0 0.0 0.0 0.0 0.0 0.0 0.0 0.0 0.0 0.0 0.0 0.0 0.0 0.0 0.0 0.0 0.0 0.0 0.0 0.0 0.0 0.0 0.0 0.0 0.0 0.0 0.0 0.0 860000.0 860000.0 860000.0 860000.0 860000.0 860000.0 860000.0 860000.0 860000.0 860000.0 860000.0 860000.0 860000.0 860000.0 860000.0 860000.0 860000.0 860000.0 0.0 0.0 0.0 0.0 0.0 0.0 0.0 0.0 0.0 0.0 0.0 0.0 0.0 0.0 0.0 0.0 0.0 0.0 0.0 0.0 0.0 0.0 0.0 0.0 0.0 0.0 0.0 0.0 0.0 0.0 0.0 0.0 0.0 0.0 0.0 0.0 0.0 0.0 0.0 0.0 0.0 0.0 0.0 0.0 0.0 0.0 860000.0 860000.0 860000.0 860000.0 860000.0 860000.0 860000.0 860000.0 860000.0 860000.0 0.0 0.0 0.0 0.0 0.0 0.0 0.0 0.0 0.0 0.0 0.0 0.0 0.0 0.0 0.0 0.0 0.0 0.0 0.0 0.0 0.0 0.0 0.0 0.0 0.0
VECTORS spins double
0.0 0.0 0.0
0.0 0.0 0.0
0.0 0.0 0.0
0.0 0.0 0.0
0.0 0.0 0.0
0.0 0.0 0.0
0.0 0.0 0.0
0.0 0.0 0.0
0.0 0.0 0.0
0.0 0.0 0.0
0.0 0.0 0.0
0.0 0.0 0.0
0.0 0.0 0.0
0.0 0.0 0.0
0.0 0.0 0.0
0.0 0.0 0.0
0.0 0.0 0.0
0.0 0.0 0.0
0.0 0.0 0.0
0.0 0.0 0.0
0.0 0.0 0.0
0.0 0.0 0.0
0.0 0.0 0.0
0.0 0.0 0.0
0.0 0.0 0.0
0.3498957423720381 0.109150687752149 0.9304080270683134
0.37024374515335273 0.011393574288820783 0.928864767143069
0.3957461728090315 -0.01960236702578959 0.9181507032693419
0.4164595122254895 -0.02161222051517938 0.9088973465696296
0.42824517438658743 -0.010716037562280399 0.9035990466758819