# vtk DataFile Version 2.0

ASCII
DATASET RECTILINEAR_GRID
DIMENSIONS 61 61 2
X_COORDINATES 61 double
0.0 2.0 4.0 6.0 8.0 10.0 12.0 14.0 16.0 18.0 20.0 22.0 24.0 26.0 28.0 30.0 32.0 34.0 36.0 38.0 40.0 42.0 44.0 46.0 48.0 50.0 52.0 54.0 56.0 58.0 60.0 62.0 64.0 66.0 68.0 70.0 72.0 74.0 76.0 78.0 80.0 82.0 84.0 86.0 88.0 90.0 92.0 94.0 96.0 98.0 100.0 102.0 104.0 106.0 108.0 110.0 112.0 114.0 116.0 118.0 120.0
Y_COORDINATES 61 double
0.0 2.0 4.0 6.0 8.0 10.0 12.0 14.0 16.0 18.0 20.0 22.0 24.0 26.0 28.0 30.0 32.0 34.0 36.0 38.0 40.0 42.0 44.0 46.0 48.0 50.0 52.0 54.0 56.0 58.0 60.0 62.0 64.0 66.0 68.0 70.0 72.0 74.0 76.0 78.0 80.0 82.0 84.0 86.0 88.0 90.0 92.0 94.0 96.0 98.0 100.0 102.0 104.0 106.0 108.0 110.0 112.0 114.0 116.0 118.0 120.0
Z_COORDINATES 2 double
0.0 2.0
CELL_DATA 3600
SCALARS M_s double 1
LOOKUP_TABLE default
0.0 0.0 0.0 0.0 0.0 0.0 0.0 0.0 0.0 0.0 0.0 0.0 0.0 0.0 0.0 0.0 0.0 0.0 0.0 0.0 0.0 0.0 0.0 0.0 0.0 860000.0 860000.0 860000.0 860000.0 860000.0 860000.0 860000.0 860000.0 860000.0 860000.0 0.0 0.0 0.0 0.0 0.0 0.0 0.0 0.0 0.0 0.0 0.0 0.0 0.0 0.0 0.0 0.0 0.0 0.0 0.0 0.0 0.0 0.0 0.0 0.0 0.0 0.0 0.0 0.0 0.0 0.0 0.0 0.0 0.0 0.0 0.0 0.0 0.0 0.0 0.0 0.0 0.0 0.0 0.0 0.0 0.0 0.0 860000.0 860000.0 860000.0 860000.0 860000.0 860000.0 860000.0 860000.0 860000.0 860000.0 860000.0 860000.0 860000.0 860000.0 860000.0 860000.0 860000.0 860000.0 0.0 0.0 0.0 0.0 0.0 0.0 0.0 0.0 0.0 0.0 0.0 0.0 0.0 0.0 0.0 0.0 0.0 0.0 0.0 0.0 0.0 0.0 0.0 0.0 0.0 0.0 0.0 0.0 0.0 0.0 0.0 0.0 0.0 0.0 0.0 0.0 0.0 0.0 0.0 860000.0 860000.0 860000.0 860000.0 860000.0 860000.0 860000.0 860000.0 860000.0 860000.0 860000.0 860000.0 860000.0 860000.0 860000.0 860000.0 860000.0 860000.0 860000.0 860000.0 860000.0 860000.0 860000.0 860000.0 0.0 0.0 0.0 0.0 0.0 0.0 0.0 0.0 0.0 0.0 0.0 0.0 0.0 0.0 0.0 0.0 0.0 0.0 0.0 0.0 0.0 0.0 0.0 0.0 0.0 0.0 0.0 0.0 0.0 0.0 0.0 0.0 0.0 0.0 860000.0 860000.0 860000.0 860000.0 860000.0 860000.0 860000.0 860000.0 860000.0 860000.0 860000.0 860000.0 860000.0 860000.0 860000.0 860000.0 860000.0 860000.0 860000.0 860000.0 860000.0 860000.0 860000.0 860000.0 860000.0 860000.0 860000.0 860000.0 0.0 0.0 0.0 0.0 0.0 0.0 0.0 0.0 0.0 0.0 0.0 0.0 0.0 0.0 0.0 0.0 0.0 0.0 0.0 0.0 0.0 0.0 0.0 0.0 0.0 0.0 0.0 0.0 0.0 0.0 860000.0 860000.0 860000.0 860000.0 860000.0 860000.0 860000.0 860000.0 860000.0 860000.0 860000.0 860000.0 860000.0 860000.0 860000.0 860000.0 860000.0 860000.0 860000.0 860000.0 860000.0 860000.0 860000.0 860000.0 860000.0 860000.0 860000.0 860000.0 860000.0 860000.0 860000.0 860000.0 0.0 0.0 0.0 0.0 0.0 0.0 0.0 0.0 0.0 0.0 0.0 0.0 0.0 0.0 0.0 0.0 0.0 0.0 0.0 0.0 0.0 0.0 0.0 0.0 0.0 0.0 0.0 860000.0 860000.0 860000.0 860000.0 860000.0 860000.0 860000.0 860000.0 860000.0 860000.0 860000.0 860000.0 860000.0 860000.0 860000.0 860000.0 860000.0 860000.0 860000.0 860000.0 860000.0 860000.0 860000.0 860000.0 860000.0 860000.0 860000.0 860000.0 860000.0 860000.0 860000.0 860000.0 860000.0 860000.0 0.0 0.0 0.0 0.0 0.0 0.0 0.0 0.0 0.0 0.0 0.0 0.0 0.0 0.0 0.0 0.0 0.0 0.0 0.0 0.0 0.0 0.0 0.0 0.0 860000.0 860000.0 860000.0 860000.0 860000.0 860000.0 860000.0 860000.0 860000.0 860000.0 860000.0 860000.0 860000.0 860000.0 860000.0 860000.0 860000.0 860000.0 860000.0 860000.0 860000.0 860000.0 860000.0 860000.0 860000.0 860000.0 860000.0 860000.0 860000.0 860000.0 860000.0 860000.0 860000.0 860000.0 860000.0 860000.0 860000.0 860000.0 0.0 0.0 0.0 0.0 0.0 0.0 0.0 0.0 0.0 0.0 0.0 0.0 0.0 0.0 0.0 0.0 0.0 0.0 0.0 0.0 0.0 860000.0 860000.0 860000.0 860000.0 860000.0 860000.0 860000.0 860000.0 860000.0 860000.0 860000.0 860000.0 860000.0 860000.0 860000.0 860000.0 860000.0 860000.0 860000.0 860000.0 860000.0 860000.0 860000.0 860000.0 860000.0 860000.0 860000.0 860000.0 860000.0 860000.0 860000.0 860000.0 860000.0 860000.0 860000.0 860000.0 860000.0 860000.0 860000.0 860000.0 0.0 0.0 0.0 0.0 0.0 0.0 0.0 0.0 0.0 0.0 0.0 0.0 0.0 0.0 0.0 0.0 0.0 0.0 0.0 860000.0 860000.0 860000.0 860000.0 860000.0 860000.0 860000.0 860000.0 860000.0 860000.0 860000.0 860000.0 860000.0 860000.0 860000.0 860000.0 860000.0 860000.0 860000.0 860000.0 860000.0 860000.0 860000.0 860000.0 860000.0 860000.0 860000.0 860000.0 860000.0 860000.0 860000.0 860000.0 860000.0 860000.0 860000.0 860000.0 860000.0 860000.0 860000.0 860000.0 860000.0 860000.0 0.0 0.0 0.0 0.0 0.0 0.0 0.0 0.0 0.0 0.0 0.0 0.0 0.0 0.0 0.0 0.0 0.0 860000.0 860000.0 860000.0 860000.0 860000.0 860000.0 860000.0 860000.0 860000.0 860000.0 860000.0 860000.0 860000.0 860000.0 860000.0 860000.0 860000.0 860000.0 860000.0 860000.0 860000.0 860000.0 860000.0 860000.0 860000.0 860000.0 860000.0 860000.0 860000.0 860000.0 860000.0 860000.0 860000.0 860000.0 860000.0 860000.0 860000.0 860000.0 860000.0 860000.0 860000.0 860000.0 860000.0 860000.0 0.0 0.0 0.0 0.0 0.0 0.0 0.0 0.0 0.0 0.0 0.0 0.0 0.0 0.0 0.0 860000.0 860000.0 860000.0 860000.0 860000.0 860000.0 860000.0 860000.0 860000.0 860000.0 860000.0 860000.0 860000.0 860000.0 860000.0 860000.0 860000.0 860000.0 860000.0 860000.0 860000.0 860000.0 860000.0 860000.0 860000.0 860000.0 860000.0 860000.0 860000.0 860000.0 860000.0 860000.0 860000.0 860000.0 860000.0 860000.0 860000.0 860000.0 860000.0 860000.0 860000.0 860000.0 860000.0 860000.0 860000.0 860000.0 0.0 0.0 0.0 0.0 0.0 0.0 0.0 0.0 0.0 0.0 0.0 0.0 0.0 860000.0 860000.0 860000.0 860000.0 860000.0 860000.0 860000.0 860000.0 860000.0 860000.0 860000.0 860000.0 860000.0 860000.0 860000.0 860000.0 860000.0 860000.0 860000.0 860000.0 860000.0 860000.0 860000.0 860000.0 860000.0 860000.0 860000.0 860000.0 860000.0 860000.0 860000.0 860000.0 860000.0 860000.0 860000.0 860000.0 860000.0 860000.0 860000.0 860000.0 860000.0 860000.0 860000.0 860000.0 860000.0 860000.0 860000.0 860000.0 0.0 0.0 0.0 0.0 0.0 0.0 0.0 0.0 0.0 0.0 0.0 0.0 860000.0 860000.0 860000.0 860000.0 860000.0 860000.0 860000.0 860000.0 860000.0 860000.0 860000.0 860000.0 860000.0 860000.0 860000.0 860000.0 860000.0 860000.0 860000.0 860000.0 860000.0 860000.0 860000.0 860000.0 860000.0 860000.0 860000.0 860000.0 860000.0 860000.0 860000.0 860000.0 860000.0 860000.0 860000.0 860000.0 860000.0 860000.0 860000.0 860000.0 860000.0 860000.0 860000.0 860000.0 860000.0 860000.0 860000.0 860000.0 0.0 0.0 0.0 0.0 0.0 0.0 0.0 0.0 0.0 0.0 0.0 860000.0 860000.0 860000.0 860000.0 860000.0 860000.0 860000.0 860000.0 860000.0 860000.0 860000.0 860000.0 860000.0 860000.0 860000.0 860000.0 860000.0 860000.0 860000.0 860000.0 860000.0 860000.0 860000.0 860000.0 860000.0 860000.0 860000.0 860000.0 860000.0 860000.0 860000.0 860000.0 860000.0 860000.0 860000.0 860000.0 860000.0 860000.0 860000.0 860000.0 860000.0 860000.0 860000.0 860000.0 860000.0 860000.0 860000.0 860000.0 860000.0 860000.0 0.0 0.0 0.0 0.0 0.0 0.0 0.0 0.0 0.0 860000.0 860000.0 860000.0 860000.0 860000.0 860000.0 860000.0 860000.0 860000.0 860000.0 860000.0 860000.0 860000.0 860000.0 860000.0 860000.0 860000.0 860000.0 860000.0 860000.0 860000.0 860000.0 860000.0 860000.0 860000.0 860000.0 860000.0 860000.0 860000.0 860000.0 860000.0 860000.0 860000.0 860000.0 860000.0 860000.0 860000.0 860000.0 860000.0 860000.0 860000.0 860000.0 860000.0 860000.0 860000.0 860000.0 860000.0 860000.0 860000.0 860000.0 860000.0 860000.0 0.0 0.0 0.0 0.0 0.0 0.0 0.0 0.0 860000.0 860000.0 860000.0 860000.0 860000.0 860000.0 860000.0 860000.0 860000.0 860000.0 860000.0 860000.0 860000.0 860000.0 860000.0 860000.0 860000.0 860000.0 860000.0 860000.0 860000.0 860000.0 860000.0 860000.0 860000.0 860000.0 860000.0 860000.0 860000.0 860000.0 860000.0 860000.0 860000.0 860000.0 860000.0 860000.0 860000.0 860000.0 860000.0 860000.0 860000.0 860000.0 860000.0 860000.0 860000.0 860000.0 860000.0 860000.0 860000.0 860000.0 860000.0 860000.0 0.0 0.0 0.0 0.0 0.0 0.0 0.0 860000.0 860000.0 860000.0 860000.0 860000.0 860000.0 860000.0 860000.0 860000.0 860000.0 860000.0 860000.0 860000.0 860000.0 860000.0 860000.0 860000.0 860000.0 860000.0 860000.0 860000.0 860000.0 860000.0 860000.0 860000.0 860000.0 860000.0 860000.0 860000.0 860000.0 860000.0 860000.0 860000.0 860000.0 860000.0 860000.0 860000.0 860000.0 860000.0 860000.0 860000.0 860000.0 860000.0 860000.0 860000.0 860000.0 860000.0 860000.0 860000.0 860000.0 860000.0 860000.0 860000.0 860000.0 0.0 0.0 0.0 0.0 0.0 0.0 860000.0 860000.0 860000.0 860000.0 860000.0 860000.0 860000.0 860000.0 860000.0 860000.0 860000.0 860000.0 860000.0 860000.0 860000.0 860000.0 860000.0 860000.0 860000.0 860000.0 860000.0 860000.0 860000.0 860000.0 860000.0 860000.0 860000.0 860000.0 860000.0 860000.0 860000.0 860000.0 860000.0 860000.0 860000.0 860000.0 860000.0 860000.0 860000.0 860000.0 860000.0 860000.0 860000.0 860000.0 860000.0 860000.0 860000.0 860000.0 860000.0 860000.0 860000.0 860000.0 860000.0 860000.0 0.0 0.0 0.0 0.0 0.0 860000.0 860000.0 860000.0 860000.0 860000.0 860000.0 860000.0 860000.0 860000.0 860000.0 860000.0 860000.0 860000.0 860000.0 860000.0 860000.0 860000.0 860000.0 860000.0 860000.0 860000.0 860000.0 860000.0 860000.0 860000.0 860000.0 860000.0 860000.0 860000.0 860000.0 860000.0 860000.0 860000.0 860000.0 860000.0 860000.0 860000.0 860000.0 860000.0 860000.0 860000.0 860000.0 860000.0 860000.0 860000.0 860000.0 860000.0 860000.0 860000.0 860000.0 860000.0 860000.0 860000.0 860000.0 860000.0 860000.0 0.0 0.0 0.0 0.0 860000.0 860000.0 860000.0 860000.0 860000.0 860000.0 860000.0 860000.0 860000.0 860000.0 860000.0 860000.0 860000.0 860000.0 860000.0 860000.0 860000.0 860000.0 860000.0 860000.0 860000.0 860000.0 860000.0 860000.0 860000.0 860000.0 860000.0 860000.0 860000.0 860000.0 860000.0 860000.0 860000.0 860000.0 860000.0 860000.0 860000.0 860000.0 860000.0 860000.0 860000.0 860000.0 860000.0 860000.0 860000.0 860000.0 860000.0 860000.0 860000.0 860000.0 860000.0 860000.0 860000.0 860000.0 860000.0 860000.0 0.0 0.0 0.0 0.0 860000.0 860000.0 860000.0 860000.0 860000.0 860000.0 860000.0 860000.0 860000.0 860000.0 860000.0 860000.0 860000.0 860000.0 860000.0 860000.0 860000.0 860000.0 860000.0 860000.0 860000.0 860000.0 860000.0 860000.0 860000.0 860000.0 860000.0 860000.0 860000.0 860000.0 860000.0 860000.0 860000.0 860000.0 860000.0 860000.0 860000.0 860000.0 860000.0 860000.0 860000.0 860000.0 860000.0 860000.0 860000.0 860000.0 860000.0 860000.0 860000.0 860000.0 860000.0 860000.0 860000.0 860000.0 860000.0 860000.0 0.0 0.0 0.0 860000.0 860000.0 860000.0 860000.0 860000.0 860000.0 860000.0 860000.0 860000.0 860000.0 860000.0 860000.0 860000.0 860000.0 860000.0 860000.0 860000.0 860000.0 860000.0 860000.0 860000.0 860000.0 860000.0 860000.0 860000.0 860000.0 860000.0 860000.0 860000.0 860000.0 860000.0 860000.0 860000.0 860000.0 860000.0 860000.0 860000.0 860000.0 860000.0 860000.0 860000.0 860000.0 860000.0 860000.0 860000.0 860000.0 860000.0 860000.0 860000.0 860000.0 860000.0 860000.0 860000.0 860000.0 860000.0 860000.0 860000.0 860000.0 0.0 0.0 860000.0 860000.0 860000.0 860000.0 860000.0 860000.0 860000.0 860000.0 860000.0 860000.0 860000.0 860000.0 860000.0 860000.0 860000.0 860000.0 860000.0 860000.0 860000.0 860000.0 860000.0 860000.0 860000.0 860000.0 860000.0 860000.0 860000.0 860000.0 860000.0 860000.0 860000.0 860000.0 860000.0 860000.0 860000.0 860000.0 860000.0 860000.0 860000.0 860000.0 860000.0 860000.0 860000.0 860000.0 860000.0 860000.0 860000.0 860000.0 860000.0 860000.0 860000.0 860000.0 860000.0 860000.0 860000.0 860000.0 860000.0 860000.0 0.0 0.0 860000.0 860000.0 860000.0 860000.0 860000.0 860000.0 860000.0 860000.0 860000.0 860000.0 860000.0 860000.0 860000.0 860000.0 860000.0 860000.0 860000.0 860000.0 860000.0 860000.0 860000.0 860000.0 860000.0 860000.0 860000.0 860000.0 860000.0 860000.0 860000.0 860000.0 860000.0 860000.0 860000.0 860000.0 860000.0 860000.0 860000.0 860000.0 860000.0 860000.0 860000.0 860000.0 860000.0 860000.0 860000.0 860000.0 860000.0 860000.0 860000.0 860000.0 860000.0 860000.0 860000.0 860000.0 860000.0 860000.0 860000.0 860000.0 0.0 0.0 860000.0 860000.0 860000.0 860000.0 860000.0 860000.0 860000.0 860000.0 860000.0 860000.0 860000.0 860000.0 860000.0 860000.0 860000.0 860000.0 860000.0 860000.0 860000.0 860000.0 860000.0 860000.0 860000.0 860000.0 860000.0 860000.0 860000.0 860000.0 860000.0 860000.0 860000.0 860000.0 860000.0 860000.0 860000.0 860000.0 860000.0 860000.0 860000.0 860000.0 860000.0 860000.0 860000.0 860000.0 860000.0 860000.0 860000.0 860000.0 860000.0 860000.0 860000.0 860000.0 860000.0 860000.0 860000.0 860000.0 860000.0 860000.0 0.0 860000.0 860000.0 860000.0 860000.0 860000.0 860000.0 860000.0 860000.0 860000.0 860000.0 860000.0 860000.0 860000.0 860000.0 860000.0 860000.0 860000.0 860000.0 860000.0 860000.0 860000.0 860000.0 860000.0 860000.0 860000.0 860000.0 860000.0 860000.0 860000.0 860000.0 860000.0 860000.0 860000.0 860000.0 860000.0 860000.0 860000.0 860000.0 860000.0 860000.0 860000.0 860000.0 860000.0 860000.0 860000.0 860000.0 860000.0 860000.0 860000.0 860000.0 860000.0 860000.0 860000.0 860000.0 860000.0 860000.0 860000.0 860000.0 860000.0 860000.0 860000.0 860000.0 860000.0 860000.0 860000.0 860000.0 860000.0 860000.0 860000.0 860000.0 860000.0 860000.0 860000.0 860000.0 860000.0 860000.0 860000.0 860000.0 860000.0 860000.0 860000.0 860000.0 860000.0 860000.0 860000.0 860000.0 860000.0 860000.0 860000.0 860000.0 860000.0 860000.0 860000.0 860000.0 860000.0 860000.0 860000.0 860000.0 860000.0 860000.0 860000.0 860000.0 860000.0 860000.0 860000.0 860000.0 860000.0 860000.0 860000.0 860000.0 860000.0 860000.0 860000.0 860000.0 860000.0 860000.0 860000.0 860000.0 860000.0 860000.0 860000.0 860000.0 860000.0 860000.0 860000.0 860000.0 860000.0 860000.0 860000.0 860000.0 860000.0 860000.0 860000.0 860000.0 860000.0 860000.0 860000.0 860000.0 860000.0 860000.0 860000.0 860000.0 860000.0 860000.0 860000.0 860000.0 860000.0 860000.0 860000.0 860000.0 860000.0 860000.0 860000.0 860000.0 860000.0 860000.0 860000.0 860000.0 860000.0 860000.0 860000.0 860000.0 860000.0 860000.0 860000.0 860000.0 860000.0 860000.0 860000.0 860000.0 860000.0 860000.0 860000.0 860000.0 860000.0 860000.0 860000.0 860000.0 860000.0 860000.0 860000.0 860000.0 860000.0 860000.0 860000.0 860000.0 860000.0 860000.0 860000.0 860000.0 860000.0 860000.0 860000.0 860000.0 860000.0 860000.0 860000.0 860000.0 860000.0 860000.0 860000.0 860000.0 860000.0 860000.0 860000.0 860000.0 860000.0 860000.0 860000.0 860000.0 860000.0 860000.0 860000.0 860000.0 860000.0 860000.0 860000.0 860000.0 860000.0 860000.0 860000.0 860000.0 860000.0 860000.0 860000.0 860000.0 860000.0 860000.0 860000.0 860000.0 860000.0 860000.0 860000.0 860000.0 860000.0 860000.0 860000.0 860000.0 860000.0 860000.0 860000.0 860000.0 860000.0 860000.0 860000.0 860000.0 860000.0 860000.0 860000.0 860000.0 860000.0 860000.0 860000.0 860000.0 860000.0 860000.0 860000.0 860000.0 860000.0 860000.0 860000.0 860000.0 860000.0 860000.0 860000.0 860000.0 860000.0 860000.0 860000.0 860000.0 860000.0 860000.0 860000.0 860000.0 860000.0 860000.0 860000.0 860000.0 860000.0 860000.0 860000.0 860000.0 860000.0 860000.0 860000.0 860000.0 860000.0 860000.0 860000.0 860000.0 860000.0 860000.0 860000.0 860000.0 860000.0 860000.0 860000.0 860000.0 860000.0 860000.0 860000.0 860000.0 860000.0 860000.0 860000.0 860000.0 860000.0 860000.0 860000.0 860000.0 860000.0 860000.0 860000.0 860000.0 860000.0 860000.0 860000.0 860000.0 860000.0 860000.0 860000.0 860000.0 860000.0 860000.0 860000.0 860000.0 860000.0 860000.0 860000.0 860000.0 860000.0 860000.0 860000.0 860000.0 860000.0 860000.0 860000.0 860000.0 860000.0 860000.0 860000.0 860000.0 860000.0 860000.0 860000.0 860000.0 860000.0 860000.0 860000.0 860000.0 860000.0 860000.0 860000.0 860000.0 860000.0 860000.0 860000.0 860000.0 860000.0 860000.0 860000.0 860000.0 860000.0 860000.0 860000.0 860000.0 860000.0 860000.0 860000.0 860000.0 860000.0 860000.0 860000.0 860000.0 860000.0 860000.0 860000.0 860000.0 860000.0 860000.0 860000.0 860000.0 860000.0 860000.0 860000.0 860000.0 860000.0 860000.0 860000.0 860000.0 860000.0 860000.0 860000.0 860000.0 860000.0 860000.0 860000.0 860000.0 860000.0 860000.0 860000.0 860000.0 860000.0 860000.0 860000.0 860000.0 860000.0 860000.0 860000.0 860000.0 860000.0 860000.0 860000.0 860000.0 860000.0 860000.0 860000.0 860000.0 860000.0 860000.0 860000.0 860000.0 860000.0 860000.0 860000.0 860000.0 860000.0 860000.0 860000.0 860000.0 860000.0 860000.0 860000.0 860000.0 860000.0 860000.0 860000.0 860000.0 860000.0 860000.0 860000.0 860000.0 860000.0 860000.0 860000.0 860000.0 860000.0 860000.0 860000.0 860000.0 860000.0 860000.0 860000.0 860000.0 860000.0 860000.0 860000.0 860000.0 860000.0 860000.0 860000.0 860000.0 860000.0 860000.0 860000.0 860000.0 860000.0 860000.0 860000.0 860000.0 860000.0 860000.0 860000.0 860000.0 860000.0 860000.0 860000.0 860000.0 860000.0 860000.0 860000.0 860000.0 860000.0 860000.0 860000.0 860000.0 860000.0 860000.0 860000.0 860000.0 860000.0 860000.0 860000.0 860000.0 860000.0 860000.0 860000.0 860000.0 860000.0 860000.0 860000.0 860000.0 860000.0 860000.0 860000.0 860000.0 860000.0 860000.0 860000.0 860000.0 860000.0 860000.0 860000.0 860000.0 860000.0 860000.0 860000.0 860000.0 860000.0 860000.0 860000.0 860000.0 860000.0 860000.0 860000.0 860000.0 860000.0 860000.0 860000.0 860000.0 860000.0 860000.0 860000.0 860000.0 860000.0 860000.0 860000.0 860000.0 860000.0 860000.0 860000.0 860000.0 860000.0 860000.0 860000.0 860000.0 860000.0 860000.0 860000.0 860000.0 860000.0 860000.0 860000.0 860000.0 860000.0 860000.0 860000.0 860000.0 860000.0 860000.0 860000.0 860000.0 860000.0 860000.0 860000.0 860000.0 860000.0 860000.0 860000.0 860000.0 860000.0 860000.0 860000.0 860000.0 860000.0 860000.0 860000.0 860000.0 860000.0 860000.0 860000.0 860000.0 860000.0 860000.0 860000.0 860000.0 860000.0 860000.0 860000.0 860000.0 860000.0 860000.0 860000.0 860000.0 860000.0 860000.0 860000.0 860000.0 860000.0 860000.0 0.0 860000.0 860000.0 860000.0 860000.0 860000.0 860000.0 860000.0 860000.0 860000.0 860000.0 860000.0 860000.0 860000.0 860000.0 860000.0 860000.0 860000.0 860000.0 860000.0 860000.0 860000.0 860000.0 860000.0 860000.0 860000.0 860000.0 860000.0 860000.0 860000.0 860000.0 860000.0 860000.0 860000.0 860000.0 860000.0 860000.0 860000.0 860000.0 860000.0 860000.0 860000.0 860000.0 860000.0 860000.0 860000.0 860000.0 860000.0 860000.0 860000.0 860000.0 860000.0 860000.0 860000.0 860000.0 860000.0 860000.0 860000.0 860000.0 0.0 0.0 860000.0 860000.0 860000.0 860000.0 860000.0 860000.0 860000.0 860000.0 860000.0 860000.0 860000.0 860000.0 860000.0 860000.0 860000.0 860000.0 860000.0 860000.0 860000.0 860000.0 860000.0 860000.0 860000.0 860000.0 860000.0 860000.0 860000.0 860000.0 860000.0 860000.0 860000.0 860000.0 860000.0 860000.0 860000.0 860000.0 860000.0 860000.0 860000.0 860000.0 860000.0 860000.0 860000.0 860000.0 860000.0 860000.0 860000.0 860000.0 860000.0 860000.0 860000.0 860000.0 860000.0 860000.0 860000.0 860000.0 860000.0 860000.0 0.0 0.0 860000.0 860000.0 860000.0 860000.0 860000.0 860000.0 860000.0 860000.0 860000.0 860000.0 860000.0 860000.0 860000.0 860000.0 860000.0 860000.0 860000.0 860000.0 860000.0 860000.0 860000.0 860000.0 860000.0 860000.0 860000.0 860000.0 860000.0 860000.0 860000.0 860000.0 860000.0 860000.0 860000.0 860000.0 860000.0 860000.0 860000.0 860000.0 860000.0 860000.0 860000.0 860000.0 860000.0 860000.0 860000.0 860000.0 860000.0 860000.0 860000.0 860000.0 860000.0 860000.0 860000.0 860000.0 860000.0 860000.0 860000.0 860000.0 0.0 0.0 860000.0 860000.0 860000.0 860000.0 860000.0 860000.0 860000.0 860000.0 860000.0 860000.0 860000.0 860000.0 860000.0 860000.0 860000.0 860000.0 860000.0 860000.0 860000.0 860000.0 860000.0 860000.0 860000.0 860000.0 860000.0 860000.0 860000.0 860000.0 860000.0 860000.0 860000.0 860000.0 860000.0 860000.0 860000.0 860000.0 860000.0 860000.0 860000.0 860000.0 860000.0 860000.0 860000.0 860000.0 860000.0 860000.0 860000.0 860000.0 860000.0 860000.0 860000.0 860000.0 860000.0 860000.0 860000.0 860000.0 860000.0 860000.0 0.0 0.0 0.0 860000.0 860000.0 860000.0 860000.0 860000.0 860000.0 860000.0 860000.0 860000.0 860000.0 860000.0 860000.0 860000.0 860000.0 860000.0 860000.0 860000.0 860000.0 860000.0 860000.0 860000.0 860000.0 860000.0 860000.0 860000.0 860000.0 860000.0 860000.0 860000.0 860000.0 860000.0 860000.0 860000.0 860000.0 860000.0 860000.0 860000.0 860000.0 860000.0 860000.0 860000.0 860000.0 860000.0 860000.0 860000.0 860000.0 860000.0 860000.0 860000.0 860000.0 860000.0 860000.0 860000.0 860000.0 860000.0 860000.0 0.0 0.0 0.0 0.0 860000.0 860000.0 860000.0 860000.0 860000.0 860000.0 860000.0 860000.0 860000.0 860000.0 860000.0 860000.0 860000.0 860000.0 860000.0 860000.0 860000.0 860000.0 860000.0 860000.0 860000.0 860000.0 860000.0 860000.0 860000.0 860000.0 860000.0 860000.0 860000.0 860000.0 860000.0 860000.0 860000.0 860000.0 860000.0 860000.0 860000.0 860000.0 860000.0 860000.0 860000.0 860000.0 860000.0 860000.0 860000.0 860000.0 860000.0 860000.0 860000.0 860000.0 860000.0 860000.0 860000.0 860000.0 860000.0 860000.0 0.0 0.0 0.0 0.0 860000.0 860000.0 860000.0 860000.0 860000.0 860000.0 860000.0 860000.0 860000.0 860000.0 860000.0 860000.0 860000.0 860000.0 860000.0 860000.0 860000.0 860000.0 860000.0 860000.0 860000.0 860000.0 860000.0 860000.0 860000.0 860000.0 860000.0 860000.0 860000.0 860000.0 860000.0 860000.0 860000.0 860000.0 860000.0 860000.0 860000.0 860000.0 860000.0 860000.0 860000.0 860000.0 860000.0 860000.0 860000.0 860000.0 860000.0 860000.0 860000.0 860000.0 860000.0 860000.0 860000.0 860000.0 860000.0 860000.0 0.0 0.0 0.0 0.0 0.0 860000.0 860000.0 860000.0 860000.0 860000.0 860000.0 860000.0 860000.0 860000.0 860000.0 860000.0 860000.0 860000.0 860000.0 860000.0 860000.0 860000.0 860000.0 860000.0 860000.0 860000.0 860000.0 860000.0 860000.0 860000.0 860000.0 860000.0 860000.0 860000.0 860000.0 860000.0 860000.0 860000.0 860000.0 860000.0 860000.0 860000.0 860000.0 860000.0 860000.0 860000.0 860000.0 860000.0 860000.0 860000.0 860000.0 860000.0 860000.0 860000.0 860000.0 860000.0 860000.0 860000.0 860000.0 0.0 0.0 0.0 0.0 0.0 0.0 860000.0 860000.0 860000.0 860000.0 860000.0 860000.0 860000.0 860000.0 860000.0 860000.0 860000.0 860000.0 860000.0 860000.0 860000.0 860000.0 860000.0 860000.0 860000.0 860000.0 860000.0 860000.0 860000.0 860000.0 860000.0 860000.0 860000.0 860000.0 860000.0 860000.0 860000.0 860000.0 860000.0 860000.0 860000.0 860000.0 860000.0 860000.0 860000.0 860000.0 860000.0 860000.0 860000.0 860000.0 860000.0 860000.0 860000.0 860000.0 860000.0 860000.0 860000.0 860000.0 860000.0 860000.0 0.0 0.0 0.0 0.0 0.0 0.0 0.0 860000.0 860000.0 860000.0 860000.0 860000.0 860000.0 860000.0 860000.0 860000.0 860000.0 860000.0 860000.0 860000.0 860000.0 860000.0 860000.0 860000.0 860000.0 860000.0 860000.0 860000.0 860000.0 860000.0 860000.0 860000.0 860000.0 860000.0 860000.0 860000.0 860000.0 860000.0 860000.0 860000.0 860000.0 860000.0 860000.0 860000.0 860000.0 860000.0 860000.0 860000.0 860000.0 860000.0 860000.0 860000.0 860000.0 860000.0 860000.0 860000.0 860000.0 860000.0 860000.0 0.0 0.0 0.0 0.0 0.0 0.0 0.0 0.0 860000.0 860000.0 860000.0 860000.0 860000.0 860000.0 860000.0 860000.0 860000.0 860000.0 860000.0 860000.0 860000.0 860000.0 860000.0 860000.0 860000.0 860000.0 860000.0 860000.0 860000.0 860000.0 860000.0 860000.0 860000.0 860000.0 860000.0 860000.0 860000.0 860000.0 860000.0 860000.0 860000.0 860000.0 860000.0 860000.0 860000.0 860000.0 860000.0 860000.0 860000.0 860000.0 860000.0 860000.0 860000.0 860000.0 860000.0 860000.0 860000.0 860000.0 860000.0 860000.0 0.0 0.0 0.0 0.0 0.0 0.0 0.0 0.0 0.0 860000.0 860000.0 860000.0 860000.0 860000.0 860000.0 860000.0 860000.0 860000.0 860000.0 860000.0 860000.0 860000.0 860000.0 860000.0 860000.0 860000.0 860000.0 860000.0 860000.0 860000.0 860000.0 860000.0 860000.0 860000.0 860000.0 860000.0 860000.0 860000.0 860000.0 860000.0 860000.0 860000.0 860000.0 860000.0 860000.0 860000.0 860000.0 860000.0 860000.0 860000.0 860000.0 860000.0 860000.0 860000.0 860000.0 860000.0 860000.0 860000.0 860000.0 0.0 0.0 0.0 0.0 0.0 0.0 0.0 0.0 0.0 0.0 0.0 860000.0 860000.0 860000.0 860000.0 860000.0 860000.0 860000.0 860000.0 860000.0 860000.0 860000.0 860000.0 860000.0 860000.0 860000.0 860000.0 860000.0 860000.0 860000.0 860000.0 860000.0 860000.0 860000.0 860000.0 860000.0 860000.0 860000.0 860000.0 860000.0 860000.0 860000.0 860000.0 860000.0 860000.0 860000.0 860000.0 860000.0 860000.0 860000.0 860000.0 860000.0 860000.0 860000.0 860000.0 860000.0 860000.0 860000.0 860000.0 0.0 0.0 0.0 0.0 0.0 0.0 0.0 0.0 0.0 0.0 0.0 0.0 860000.0 860000.0 860000.0 860000.0 860000.0 860000.0 860000.0 860000.0 860000.0 860000.0 860000.0 860000.0 860000.0 860000.0 860000.0 860000.0 860000.0 860000.0 860000.0 860000.0 860000.0 860000.0 860000.0 860000.0 860000.0 860000.0 860000.0 860000.0 860000.0 860000.0 860000.0 860000.0 860000.0 860000.0 860000.0 860000.0 860000.0 860000.0 860000.0 860000.0 860000.0 860000.0 860000.0 860000.0 860000.0 860000.0 860000.0 860000.0 0.0 0.0 0.0 0.0 0.0 0.0 0.0 0.0 0.0 0.0 0.0 0.0 0.0 860000.0 860000.0 860000.0 860000.0 860000.0 860000.0 860000.0 860000.0 860000.0 860000.0 860000.0 860000.0 860000.0 860000.0 860000.0 860000.0 860000.0 860000.0 860000.0 860000.0 860000.0 860000.0 860000.0 860000.0 860000.0 860000.0 860000.0 860000.0 860000.0 860000.0 860000.0 860000.0 860000.0 860000.0 860000.0 860000.0 860000.0 860000.0 860000.0 860000.0 860000.0 860000.0 860000.0 860000.0 860000.0 860000.0 0.0 0.0 0.0 0.0 0.0 0.0 0.0 0.0 0.0 0.0 0.0 0.0 0.0 0.0 0.0 860000.0 860000.0 860000.0 860000.0 860000.0 860000.0 860000.0 860000.0 860000.0 860000.0 860000.0 860000.0 860000.0 860000.0 860000.0 860000.0 860000.0 860000.0 860000.0 860000.0 860000.0 860000.0 860000.0 860000.0 860000.0 860000.0 860000.0 860000.0 860000.0 860000.0 860000.0 860000.0 860000.0 860000.0 860000.0 860000.0 860000.0 860000.0 860000.0 860000.0 860000.0 860000.0 860000.0 860000.0 0.0 0.0 0.0 0.0 0.0 0.0 0.0 0.0 0.0 0.0 0.0 0.0 0.0 0.0 0.0 0.0 0.0 860000.0 860000.0 860000.0 860000.0 860000.0 860000.0 860000.0 860000.0 860000.0 860000.0 860000.0 860000.0 860000.0 860000.0 860000.0 860000.0 860000.0 860000.0 860000.0 860000.0 860000.0 860000.0 860000.0 860000.0 860000.0 860000.0 860000.0 860000.0 860000.0 860000.0 860000.0 860000.0 860000.0 860000.0 860000.0 860000.0 860000.0 860000.0 860000.0 860000.0 860000.0 860000.0 0.0 0.0 0.0 0.0 0.0 0.0 0.0 0.0 0.0 0.0 0.0 0.0 0.0 0.0 0.0 0.0 0.0 0.0 0.0 860000.0 860000.0 860000.0 860000.0 860000.0 860000.0 860000.0 860000.0 860000.0 860000.0 860000.0 860000.0 860000.0 860000.0 860000.0 860000.0 860000.0 860000.0 860000.0 860000.0 860000.0 860000.0 860000.0 860000.0 860000.0 860000.0 860000.0 860000.0 860000.0 860000.0 860000.0 860000.0 860000.0 860000.0 860000.0 860000.0 860000.0 860000.0 860000.0 860000.0 0.0 0.0 0.0 0.0 0.0 0.0 0.0 0.0 0.0 0.0 0.0 0.0 0.0 0.0 0.0 0.0 0.0 0.0 0.0 0.0 0.0 860000.0 860000.0 860000.0 860000.0 860000.0 860000.0 860000.0 860000.0 860000.0 860000.0 860000.0 860000.0 860000.0 860000.0 860000.0 860000.0 860000.0 860000.0 860000.0 860000.0 860000.0 860000.0 860000.0 860000.0 860000.0 860000.0 860000.0 860000.0 860000.0 860000.0 860000.0 860000.0 860000.0 860000.0 860000.0 860000.0 860000.0 860000.0 0.0 0.0 0.0 0.0 0.0 0.0 0.0 0.0 0.0 0.0 0.0 0.0 0.0 0.0 0.0 0.0 0.0 0.0 0.0 0.0 0.0 0.0 0.0 0.0 860000.0 860000.0 860000.0 860000.0 860000.0 860000.0 860000.0 860000.0 860000.0 860000.0 860000.0 860000.0 860000.0 860000.0 860000.0 860000.0 860000.0 860000.0 860000.0 860000.0 860000.0 860000.0 860000.0 860000.0 860000.0 860000.0 860000.0 860000.0 860000.0 860000.0 860000.0 860000.0 860000.0 860000.0 0.0 0.0 0.0 0.0 0.0 0.0 0.0 0.0 0.0 0.0 0.0 0.0 0.0 0.0 0.0 0.0 0.0 0.0 0.0 0.0 0.0 0.0 0.0 0.0 0.0 0.0 0.0 860000.0 860000.0 860000.0 860000.0 860000.0 860000.0 860000.0 860000.0 860000.0 860000.0 860000.0 860000.0 860000.0 860000.0 860000.0 860000.0 860000.0 860000.0 860000.0 860000.0 860000.0 860000.0 860000.0 860000.0 860000.0 860000.0 860000.0 860000.0 860000.0 860000.0 860000.0 860000.0 0.0 0.0 0.0 0.0 0.0 0.0 0.0 0.0 0.0 0.0 0.0 0.0 0.0 0.0 0.0 0.0 0.0 0.0 0.0 0.0 0.0 0.0 0.0 0.0 0.0 0.0 0.0 0.0 0.0 0.0 860000.0 860000.0 860000.0 860000.0 860000.0 860000.0 860000.0 860000.0 860000.0 860000.0 860000.0 860000.0 860000.0 860000.0 860000.0 860000.0 860000.0 860000.0 860000.0 860000.0 860000.0 860000.0 860000.0 860000.0 860000.0 860000.0 860000.0 860000.0 0.0 0.0 0.0 0.0 0.0 0.0 0.0 0.0 0.0 0.0 0.0 0.0 0.0 0.0 0.0 0.0 0.0 0.0 0.0 0.0 0.0 0.0 0.0 0.0 0.0 0.0 0.0 0.0 0.0 0.0 0.0 0.0 0.0 0.0 860000.0 860000.0 860000.0 860000.0 860000.0 860000.0 860000.0 860000.0 860000.0 860000.0 860000.0 860000.0 860000.0 860000.0 860000.0 860000.0 860000.0 860000.0 860000.0 860000.0 860000.0 860000.0 860000.0 860000.0 0.0 0.0 0.0 0.0 0.0 0.0 0.0 0.0 0.0 0.0 0.0 0.0 0.0 0.0 0.0 0.0 0.0 0.0 0.0 0.0 0.0 0.0 0.0 0.0 0.0 0.0 0.0 0.0 0.0 0.0 0.0 0.0 0.0 0.0 0.0 0.0 0.0 0.0 0.0 860000.0 860000.0 860000.0 860000.0 860000.0 860000.0 860000.0 860000.0 860000.0 860000.0 860000.0 860000.0 860000.0 860000.0 860000.0 860000.0 860000.0 860000.0 0.0 0.0 0.0 0.0 0.0 0.0 0.0 0.0 0.0 0.0 0.0 0.0 0.0 0.0 0.0 0.0 0.0 0.0 0.0 0.0 0.0 0.0 0.0 0.0 0.0 0.0 0.0 0.0 0.0 0.0 0.0 0.0 0.0 0.0 0.0 0.0 0.0 0.0 0.0 0.0 0.0 0.0 0.0 0.0 0.0 0.0 860000.0 860000.0 860000.0 860000.0 860000.0 860000.0 860000.0 860000.0 860000.0 860000.0 0.0 0.0 0.0 0.0 0.0 0.0 0.0 0.0 0.0 0.0 0.0 0.0 0.0 0.0 0.0 0.0 0.0 0.0 0.0 0.0 0.0 0.0 0.0 0.0 0.0
VECTORS spins double
0.0 0.0 0.0
0.0 0.0 0.0
0.0 0.0 0.0
0.0 0.0 0.0
0.0 0.0 0.0
0.0 0.0 0.0
0.0 0.0 0.0
0.0 0.0 0.0
0.0 0.0 0.0
0.0 0.0 0.0
0.0 0.0 0.0
0.0 0.0 0.0
0.0 0.0 0.0
0.0 0.0 0.0
0.0 0.0 0.0
0.0 0.0 0.0
0.0 0.0 0.0
0.0 0.0 0.0
0.0 0.0 0.0
0.0 0.0 0.0
0.0 0.0 0.0
0.0 0.0 0.0
0.0 0.0 0.0
0.0 0.0 0.0
0.0 0.0 0.0
0.4847605010322902 0.05089215679905871 0.8731650731764722
0.5105002497424672 -0.032681657487428975 0.8592563088373212
0.5419811595160199 -0.04891319161919926 0.8389659840633054
0.5662339881701964 -0.035066534942979705 0.8234982749028394
0.5779363144373126 -0.007695754835147351 0.8160455819451182