# vtk DataFile Version 2.0

ASCII
DATASET RECTILINEAR_GRID
DIMENSIONS 61 61 2
X_COORDINATES 61 double
0.0 2.0 4.0 6.0 8.0 10.0 12.0 14.0 16.0 18.0 20.0 22.0 24.0 26.0 28.0 30.0 32.0 34.0 36.0 38.0 40.0 42.0 44.0 46.0 48.0 50.0 52.0 54.0 56.0 58.0 60.0 62.0 64.0 66.0 68.0 70.0 72.0 74.0 76.0 78.0 80.0 82.0 84.0 86.0 88.0 90.0 92.0 94.0 96.0 98.0 100.0 102.0 104.0 106.0 108.0 110.0 112.0 114.0 116.0 118.0 120.0
Y_COORDINATES 61 double
0.0 2.0 4.0 6.0 8.0 10.0 12.0 14.0 16.0 18.0 20.0 22.0 24.0 26.0 28.0 30.0 32.0 34.0 36.0 38.0 40.0 42.0 44.0 46.0 48.0 50.0 52.0 54.0 56.0 58.0 60.0 62.0 64.0 66.0 68.0 70.0 72.0 74.0 76.0 78.0 80.0 82.0 84.0 86.0 88.0 90.0 92.0 94.0 96.0 98.0 100.0 102.0 104.0 106.0 108.0 110.0 112.0 114.0 116.0 118.0 120.0
Z_COORDINATES 2 double
0.0 2.0
CELL_DATA 3600
SCALARS M_s double 1
LOOKUP_TABLE default
0.0 0.0 0.0 0.0 0.0 0.0 0.0 0.0 0.0 0.0 0.0 0.0 0.0 0.0 0.0 0.0 0.0 0.0 0.0 0.0 0.0 0.0 0.0 0.0 0.0 860000.0 860000.0 860000.0 860000.0 860000.0 860000.0 860000.0 860000.0 860000.0 860000.0 0.0 0.0 0.0 0.0 0.0 0.0 0.0 0.0 0.0 0.0 0.0 0.0 0.0 0.0 0.0 0.0 0.0 0.0 0.0 0.0 0.0 0.0 0.0 0.0 0.0 0.0 0.0 0.0 0.0 0.0 0.0 0.0 0.0 0.0 0.0 0.0 0.0 0.0 0.0 0.0 0.0 0.0 0.0 0.0 0.0 0.0 860000.0 860000.0 860000.0 860000.0 860000.0 860000.0 860000.0 860000.0 860000.0 860000.0 860000.0 860000.0 860000.0 860000.0 860000.0 860000.0 860000.0 860000.0 0.0 0.0 0.0 0.0 0.0 0.0 0.0 0.0 0.0 0.0 0.0 0.0 0.0 0.0 0.0 0.0 0.0 0.0 0.0 0.0 0.0 0.0 0.0 0.0 0.0 0.0 0.0 0.0 0.0 0.0 0.0 0.0 0.0 0.0 0.0 0.0 0.0 0.0 0.0 860000.0 860000.0 860000.0 860000.0 860000.0 860000.0 860000.0 860000.0 860000.0 860000.0 860000.0 860000.0 860000.0 860000.0 860000.0 860000.0 860000.0 860000.0 860000.0 860000.0 860000.0 860000.0 860000.0 860000.0 0.0 0.0 0.0 0.0 0.0 0.0 0.0 0.0 0.0 0.0 0.0 0.0 0.0 0.0 0.0 0.0 0.0 0.0 0.0 0.0 0.0 0.0 0.0 0.0 0.0 0.0 0.0 0.0 0.0 0.0 0.0 0.0 0.0 0.0 860000.0 860000.0 860000.0 860000.0 860000.0 860000.0 860000.0 860000.0 860000.0 860000.0 860000.0 860000.0 860000.0 860000.0 860000.0 860000.0 860000.0 860000.0 860000.0 860000.0 860000.0 860000.0 860000.0 860000.0 860000.0 860000.0 860000.0 860000.0 0.0 0.0 0.0 0.0 0.0 0.0 0.0 0.0 0.0 0.0 0.0 0.0 0.0 0.0 0.0 0.0 0.0 0.0 0.0 0.0 0.0 0.0 0.0 0.0 0.0 0.0 0.0 0.0 0.0 0.0 860000.0 860000.0 860000.0 860000.0 860000.0 860000.0 860000.0 860000.0 860000.0 860000.0 860000.0 860000.0 860000.0 860000.0 860000.0 860000.0 860000.0 860000.0 860000.0 860000.0 860000.0 860000.0 860000.0 860000.0 860000.0 860000.0 860000.0 860000.0 860000.0 860000.0 860000.0 860000.0 0.0 0.0 0.0 0.0 0.0 0.0 0.0 0.0 0.0 0.0 0.0 0.0 0.0 0.0 0.0 0.0 0.0 0.0 0.0 0.0 0.0 0.0 0.0 0.0 0.0 0.0 0.0 860000.0 860000.0 860000.0 860000.0 860000.0 860000.0 860000.0 860000.0 860000.0 860000.0 860000.0 860000.0 860000.0 860000.0 860000.0 860000.0 860000.0 860000.0 860000.0 860000.0 860000.0 860000.0 860000.0 860000.0 860000.0 860000.0 860000.0 860000.0 860000.0 860000.0 860000.0 860000.0 860000.0 860000.0 0.0 0.0 0.0 0.0 0.0 0.0 0.0 0.0 0.0 0.0 0.0 0.0 0.0 0.0 0.0 0.0 0.0 0.0 0.0 0.0 0.0 0.0 0.0 0.0 860000.0 860000.0 860000.0 860000.0 860000.0 860000.0 860000.0 860000.0 860000.0 860000.0 860000.0 860000.0 860000.0 860000.0 860000.0 860000.0 860000.0 860000.0 860000.0 860000.0 860000.0 860000.0 860000.0 860000.0 860000.0 860000.0 860000.0 860000.0 860000.0 860000.0 860000.0 860000.0 860000.0 860000.0 860000.0 860000.0 860000.0 860000.0 0.0 0.0 0.0 0.0 0.0 0.0 0.0 0.0 0.0 0.0 0.0 0.0 0.0 0.0 0.0 0.0 0.0 0.0 0.0 0.0 0.0 860000.0 860000.0 860000.0 860000.0 860000.0 860000.0 860000.0 860000.0 860000.0 860000.0 860000.0 860000.0 860000.0 860000.0 860000.0 860000.0 860000.0 860000.0 860000.0 860000.0 860000.0 860000.0 860000.0 860000.0 860000.0 860000.0 860000.0 860000.0 860000.0 860000.0 860000.0 860000.0 860000.0 860000.0 860000.0 860000.0 860000.0 860000.0 860000.0 860000.0 0.0 0.0 0.0 0.0 0.0 0.0 0.0 0.0 0.0 0.0 0.0 0.0 0.0 0.0 0.0 0.0 0.0 0.0 0.0 860000.0 860000.0 860000.0 860000.0 860000.0 860000.0 860000.0 860000.0 860000.0 860000.0 860000.0 860000.0 860000.0 860000.0 860000.0 860000.0 860000.0 860000.0 860000.0 860000.0 860000.0 860000.0 860000.0 860000.0 860000.0 860000.0 860000.0 860000.0 860000.0 860000.0 860000.0 860000.0 860000.0 860000.0 860000.0 860000.0 860000.0 860000.0 860000.0 860000.0 860000.0 860000.0 0.0 0.0 0.0 0.0 0.0 0.0 0.0 0.0 0.0 0.0 0.0 0.0 0.0 0.0 0.0 0.0 0.0 860000.0 860000.0 860000.0 860000.0 860000.0 860000.0 860000.0 860000.0 860000.0 860000.0 860000.0 860000.0 860000.0 860000.0 860000.0 860000.0 860000.0 860000.0 860000.0 860000.0 860000.0 860000.0 860000.0 860000.0 860000.0 860000.0 860000.0 860000.0 860000.0 860000.0 860000.0 860000.0 860000.0 860000.0 860000.0 860000.0 860000.0 860000.0 860000.0 860000.0 860000.0 860000.0 860000.0 860000.0 0.0 0.0 0.0 0.0 0.0 0.0 0.0 0.0 0.0 0.0 0.0 0.0 0.0 0.0 0.0 860000.0 860000.0 860000.0 860000.0 860000.0 860000.0 860000.0 860000.0 860000.0 860000.0 860000.0 860000.0 860000.0 860000.0 860000.0 860000.0 860000.0 860000.0 860000.0 860000.0 860000.0 860000.0 860000.0 860000.0 860000.0 860000.0 860000.0 860000.0 860000.0 860000.0 860000.0 860000.0 860000.0 860000.0 860000.0 860000.0 860000.0 860000.0 860000.0 860000.0 860000.0 860000.0 860000.0 860000.0 860000.0 860000.0 0.0 0.0 0.0 0.0 0.0 0.0 0.0 0.0 0.0 0.0 0.0 0.0 0.0 860000.0 860000.0 860000.0 860000.0 860000.0 860000.0 860000.0 860000.0 860000.0 860000.0 860000.0 860000.0 860000.0 860000.0 860000.0 860000.0 860000.0 860000.0 860000.0 860000.0 860000.0 860000.0 860000.0 860000.0 860000.0 860000.0 860000.0 860000.0 860000.0 860000.0 860000.0 860000.0 860000.0 860000.0 860000.0 860000.0 860000.0 860000.0 860000.0 860000.0 860000.0 860000.0 860000.0 860000.0 860000.0 860000.0 860000.0 860000.0 0.0 0.0 0.0 0.0 0.0 0.0 0.0 0.0 0.0 0.0 0.0 0.0 860000.0 860000.0 860000.0 860000.0 860000.0 860000.0 860000.0 860000.0 860000.0 860000.0 860000.0 860000.0 860000.0 860000.0 860000.0 860000.0 860000.0 860000.0 860000.0 860000.0 860000.0 860000.0 860000.0 860000.0 860000.0 860000.0 860000.0 860000.0 860000.0 860000.0 860000.0 860000.0 860000.0 860000.0 860000.0 860000.0 860000.0 860000.0 860000.0 860000.0 860000.0 860000.0 860000.0 860000.0 860000.0 860000.0 860000.0 860000.0 0.0 0.0 0.0 0.0 0.0 0.0 0.0 0.0 0.0 0.0 0.0 860000.0 860000.0 860000.0 860000.0 860000.0 860000.0 860000.0 860000.0 860000.0 860000.0 860000.0 860000.0 860000.0 860000.0 860000.0 860000.0 860000.0 860000.0 860000.0 860000.0 860000.0 860000.0 860000.0 860000.0 860000.0 860000.0 860000.0 860000.0 860000.0 860000.0 860000.0 860000.0 860000.0 860000.0 860000.0 860000.0 860000.0 860000.0 860000.0 860000.0 860000.0 860000.0 860000.0 860000.0 860000.0 860000.0 860000.0 860000.0 860000.0 860000.0 0.0 0.0 0.0 0.0 0.0 0.0 0.0 0.0 0.0 860000.0 860000.0 860000.0 860000.0 860000.0 860000.0 860000.0 860000.0 860000.0 860000.0 860000.0 860000.0 860000.0 860000.0 860000.0 860000.0 860000.0 860000.0 860000.0 860000.0 860000.0 860000.0 860000.0 860000.0 860000.0 860000.0 860000.0 860000.0 860000.0 860000.0 860000.0 860000.0 860000.0 860000.0 860000.0 860000.0 860000.0 860000.0 860000.0 860000.0 860000.0 860000.0 860000.0 860000.0 860000.0 860000.0 860000.0 860000.0 860000.0 860000.0 860000.0 860000.0 0.0 0.0 0.0 0.0 0.0 0.0 0.0 0.0 860000.0 860000.0 860000.0 860000.0 860000.0 860000.0 860000.0 860000.0 860000.0 860000.0 860000.0 860000.0 860000.0 860000.0 860000.0 860000.0 860000.0 860000.0 860000.0 860000.0 860000.0 860000.0 860000.0 860000.0 860000.0 860000.0 860000.0 860000.0 860000.0 860000.0 860000.0 860000.0 860000.0 860000.0 860000.0 860000.0 860000.0 860000.0 860000.0 860000.0 860000.0 860000.0 860000.0 860000.0 860000.0 860000.0 860000.0 860000.0 860000.0 860000.0 860000.0 860000.0 0.0 0.0 0.0 0.0 0.0 0.0 0.0 860000.0 860000.0 860000.0 860000.0 860000.0 860000.0 860000.0 860000.0 860000.0 860000.0 860000.0 860000.0 860000.0 860000.0 860000.0 860000.0 860000.0 860000.0 860000.0 860000.0 860000.0 860000.0 860000.0 860000.0 860000.0 860000.0 860000.0 860000.0 860000.0 860000.0 860000.0 860000.0 860000.0 860000.0 860000.0 860000.0 860000.0 860000.0 860000.0 860000.0 860000.0 860000.0 860000.0 860000.0 860000.0 860000.0 860000.0 860000.0 860000.0 860000.0 860000.0 860000.0 860000.0 860000.0 0.0 0.0 0.0 0.0 0.0 0.0 860000.0 860000.0 860000.0 860000.0 860000.0 860000.0 860000.0 860000.0 860000.0 860000.0 860000.0 860000.0 860000.0 860000.0 860000.0 860000.0 860000.0 860000.0 860000.0 860000.0 860000.0 860000.0 860000.0 860000.0 860000.0 860000.0 860000.0 860000.0 860000.0 860000.0 860000.0 860000.0 860000.0 860000.0 860000.0 860000.0 860000.0 860000.0 860000.0 860000.0 860000.0 860000.0 860000.0 860000.0 860000.0 860000.0 860000.0 860000.0 860000.0 860000.0 860000.0 860000.0 860000.0 860000.0 0.0 0.0 0.0 0.0 0.0 860000.0 860000.0 860000.0 860000.0 860000.0 860000.0 860000.0 860000.0 860000.0 860000.0 860000.0 860000.0 860000.0 860000.0 860000.0 860000.0 860000.0 860000.0 860000.0 860000.0 860000.0 860000.0 860000.0 860000.0 860000.0 860000.0 860000.0 860000.0 860000.0 860000.0 860000.0 860000.0 860000.0 860000.0 860000.0 860000.0 860000.0 860000.0 860000.0 860000.0 860000.0 860000.0 860000.0 860000.0 860000.0 860000.0 860000.0 860000.0 860000.0 860000.0 860000.0 860000.0 860000.0 860000.0 860000.0 860000.0 0.0 0.0 0.0 0.0 860000.0 860000.0 860000.0 860000.0 860000.0 860000.0 860000.0 860000.0 860000.0 860000.0 860000.0 860000.0 860000.0 860000.0 860000.0 860000.0 860000.0 860000.0 860000.0 860000.0 860000.0 860000.0 860000.0 860000.0 860000.0 860000.0 860000.0 860000.0 860000.0 860000.0 860000.0 860000.0 860000.0 860000.0 860000.0 860000.0 860000.0 860000.0 860000.0 860000.0 860000.0 860000.0 860000.0 860000.0 860000.0 860000.0 860000.0 860000.0 860000.0 860000.0 860000.0 860000.0 860000.0 860000.0 860000.0 860000.0 0.0 0.0 0.0 0.0 860000.0 860000.0 860000.0 860000.0 860000.0 860000.0 860000.0 860000.0 860000.0 860000.0 860000.0 860000.0 860000.0 860000.0 860000.0 860000.0 860000.0 860000.0 860000.0 860000.0 860000.0 860000.0 860000.0 860000.0 860000.0 860000.0 860000.0 860000.0 860000.0 860000.0 860000.0 860000.0 860000.0 860000.0 860000.0 860000.0 860000.0 860000.0 860000.0 860000.0 860000.0 860000.0 860000.0 860000.0 860000.0 860000.0 860000.0 860000.0 860000.0 860000.0 860000.0 860000.0 860000.0 860000.0 860000.0 860000.0 0.0 0.0 0.0 860000.0 860000.0 860000.0 860000.0 860000.0 860000.0 860000.0 860000.0 860000.0 860000.0 860000.0 860000.0 860000.0 860000.0 860000.0 860000.0 860000.0 860000.0 860000.0 860000.0 860000.0 860000.0 860000.0 860000.0 860000.0 860000.0 860000.0 860000.0 860000.0 860000.0 860000.0 860000.0 860000.0 860000.0 860000.0 860000.0 860000.0 860000.0 860000.0 860000.0 860000.0 860000.0 860000.0 860000.0 860000.0 860000.0 860000.0 860000.0 860000.0 860000.0 860000.0 860000.0 860000.0 860000.0 860000.0 860000.0 860000.0 860000.0 0.0 0.0 860000.0 860000.0 860000.0 860000.0 860000.0 860000.0 860000.0 860000.0 860000.0 860000.0 860000.0 860000.0 860000.0 860000.0 860000.0 860000.0 860000.0 860000.0 860000.0 860000.0 860000.0 860000.0 860000.0 860000.0 860000.0 860000.0 860000.0 860000.0 860000.0 860000.0 860000.0 860000.0 860000.0 860000.0 860000.0 860000.0 860000.0 860000.0 860000.0 860000.0 860000.0 860000.0 860000.0 860000.0 860000.0 860000.0 860000.0 860000.0 860000.0 860000.0 860000.0 860000.0 860000.0 860000.0 860000.0 860000.0 860000.0 860000.0 0.0 0.0 860000.0 860000.0 860000.0 860000.0 860000.0 860000.0 860000.0 860000.0 860000.0 860000.0 860000.0 860000.0 860000.0 860000.0 860000.0 860000.0 860000.0 860000.0 860000.0 860000.0 860000.0 860000.0 860000.0 860000.0 860000.0 860000.0 860000.0 860000.0 860000.0 860000.0 860000.0 860000.0 860000.0 860000.0 860000.0 860000.0 860000.0 860000.0 860000.0 860000.0 860000.0 860000.0 860000.0 860000.0 860000.0 860000.0 860000.0 860000.0 860000.0 860000.0 860000.0 860000.0 860000.0 860000.0 860000.0 860000.0 860000.0 860000.0 0.0 0.0 860000.0 860000.0 860000.0 860000.0 860000.0 860000.0 860000.0 860000.0 860000.0 860000.0 860000.0 860000.0 860000.0 860000.0 860000.0 860000.0 860000.0 860000.0 860000.0 860000.0 860000.0 860000.0 860000.0 860000.0 860000.0 860000.0 860000.0 860000.0 860000.0 860000.0 860000.0 860000.0 860000.0 860000.0 860000.0 860000.0 860000.0 860000.0 860000.0 860000.0 860000.0 860000.0 860000.0 860000.0 860000.0 860000.0 860000.0 860000.0 860000.0 860000.0 860000.0 860000.0 860000.0 860000.0 860000.0 860000.0 860000.0 860000.0 0.0 860000.0 860000.0 860000.0 860000.0 860000.0 860000.0 860000.0 860000.0 860000.0 860000.0 860000.0 860000.0 860000.0 860000.0 860000.0 860000.0 860000.0 860000.0 860000.0 860000.0 860000.0 860000.0 860000.0 860000.0 860000.0 860000.0 860000.0 860000.0 860000.0 860000.0 860000.0 860000.0 860000.0 860000.0 860000.0 860000.0 860000.0 860000.0 860000.0 860000.0 860000.0 860000.0 860000.0 860000.0 860000.0 860000.0 860000.0 860000.0 860000.0 860000.0 860000.0 860000.0 860000.0 860000.0 860000.0 860000.0 860000.0 860000.0 860000.0 860000.0 860000.0 860000.0 860000.0 860000.0 860000.0 860000.0 860000.0 860000.0 860000.0 860000.0 860000.0 860000.0 860000.0 860000.0 860000.0 860000.0 860000.0 860000.0 860000.0 860000.0 860000.0 860000.0 860000.0 860000.0 860000.0 860000.0 860000.0 860000.0 860000.0 860000.0 860000.0 860000.0 860000.0 860000.0 860000.0 860000.0 860000.0 860000.0 860000.0 860000.0 860000.0 860000.0 860000.0 860000.0 860000.0 860000.0 860000.0 860000.0 860000.0 860000.0 860000.0 860000.0 860000.0 860000.0 860000.0 860000.0 860000.0 860000.0 860000.0 860000.0 860000.0 860000.0 860000.0 860000.0 860000.0 860000.0 860000.0 860000.0 860000.0 860000.0 860000.0 860000.0 860000.0 860000.0 860000.0 860000.0 860000.0 860000.0 860000.0 860000.0 860000.0 860000.0 860000.0 860000.0 860000.0 860000.0 860000.0 860000.0 860000.0 860000.0 860000.0 860000.0 860000.0 860000.0 860000.0 860000.0 860000.0 860000.0 860000.0 860000.0 860000.0 860000.0 860000.0 860000.0 860000.0 860000.0 860000.0 860000.0 860000.0 860000.0 860000.0 860000.0 860000.0 860000.0 860000.0 860000.0 860000.0 860000.0 860000.0 860000.0 860000.0 860000.0 860000.0 860000.0 860000.0 860000.0 860000.0 860000.0 860000.0 860000.0 860000.0 860000.0 860000.0 860000.0 860000.0 860000.0 860000.0 860000.0 860000.0 860000.0 860000.0 860000.0 860000.0 860000.0 860000.0 860000.0 860000.0 860000.0 860000.0 860000.0 860000.0 860000.0 860000.0 860000.0 860000.0 860000.0 860000.0 860000.0 860000.0 860000.0 860000.0 860000.0 860000.0 860000.0 860000.0 860000.0 860000.0 860000.0 860000.0 860000.0 860000.0 860000.0 860000.0 860000.0 860000.0 860000.0 860000.0 860000.0 860000.0 860000.0 860000.0 860000.0 860000.0 860000.0 860000.0 860000.0 860000.0 860000.0 860000.0 860000.0 860000.0 860000.0 860000.0 860000.0 860000.0 860000.0 860000.0 860000.0 860000.0 860000.0 860000.0 860000.0 860000.0 860000.0 860000.0 860000.0 860000.0 860000.0 860000.0 860000.0 860000.0 860000.0 860000.0 860000.0 860000.0 860000.0 860000.0 860000.0 860000.0 860000.0 860000.0 860000.0 860000.0 860000.0 860000.0 860000.0 860000.0 860000.0 860000.0 860000.0 860000.0 860000.0 860000.0 860000.0 860000.0 860000.0 860000.0 860000.0 860000.0 860000.0 860000.0 860000.0 860000.0 860000.0 860000.0 860000.0 860000.0 860000.0 860000.0 860000.0 860000.0 860000.0 860000.0 860000.0 860000.0 860000.0 860000.0 860000.0 860000.0 860000.0 860000.0 860000.0 860000.0 860000.0 860000.0 860000.0 860000.0 860000.0 860000.0 860000.0 860000.0 860000.0 860000.0 860000.0 860000.0 860000.0 860000.0 860000.0 860000.0 860000.0 860000.0 860000.0 860000.0 860000.0 860000.0 860000.0 860000.0 860000.0 860000.0 860000.0 860000.0 860000.0 860000.0 860000.0 860000.0 860000.0 860000.0 860000.0 860000.0 860000.0 860000.0 860000.0 860000.0 860000.0 860000.0 860000.0 860000.0 860000.0 860000.0 860000.0 860000.0 860000.0 860000.0 860000.0 860000.0 860000.0 860000.0 860000.0 860000.0 860000.0 860000.0 860000.0 860000.0 860000.0 860000.0 860000.0 860000.0 860000.0 860000.0 860000.0 860000.0 860000.0 860000.0 860000.0 860000.0 860000.0 860000.0 860000.0 860000.0 860000.0 860000.0 860000.0 860000.0 860000.0 860000.0 860000.0 860000.0 860000.0 860000.0 860000.0 860000.0 860000.0 860000.0 860000.0 860000.0 860000.0 860000.0 860000.0 860000.0 860000.0 860000.0 860000.0 860000.0 860000.0 860000.0 860000.0 860000.0 860000.0 860000.0 860000.0 860000.0 860000.0 860000.0 860000.0 860000.0 860000.0 860000.0 860000.0 860000.0 860000.0 860000.0 860000.0 860000.0 860000.0 860000.0 860000.0 860000.0 860000.0 860000.0 860000.0 860000.0 860000.0 860000.0 860000.0 860000.0 860000.0 860000.0 860000.0 860000.0 860000.0 860000.0 860000.0 860000.0 860000.0 860000.0 860000.0 860000.0 860000.0 860000.0 860000.0 860000.0 860000.0 860000.0 860000.0 860000.0 860000.0 860000.0 860000.0 860000.0 860000.0 860000.0 860000.0 860000.0 860000.0 860000.0 860000.0 860000.0 860000.0 860000.0 860000.0 860000.0 860000.0 860000.0 860000.0 860000.0 860000.0 860000.0 860000.0 860000.0 860000.0 860000.0 860000.0 860000.0 860000.0 860000.0 860000.0 860000.0 860000.0 860000.0 860000.0 860000.0 860000.0 860000.0 860000.0 860000.0 860000.0 860000.0 860000.0 860000.0 860000.0 860000.0 860000.0 860000.0 860000.0 860000.0 860000.0 860000.0 860000.0 860000.0 860000.0 860000.0 860000.0 860000.0 860000.0 860000.0 860000.0 860000.0 860000.0 860000.0 860000.0 860000.0 860000.0 860000.0 860000.0 860000.0 860000.0 860000.0 860000.0 860000.0 860000.0 860000.0 860000.0 860000.0 860000.0 860000.0 860000.0 860000.0 860000.0 860000.0 860000.0 860000.0 860000.0 860000.0 860000.0 860000.0 860000.0 860000.0 860000.0 860000.0 860000.0 860000.0 860000.0 860000.0 860000.0 860000.0 860000.0 860000.0 860000.0 860000.0 860000.0 860000.0 860000.0 860000.0 860000.0 860000.0 860000.0 860000.0 860000.0 860000.0 860000.0 860000.0 860000.0 860000.0 860000.0 860000.0 860000.0 860000.0 860000.0 860000.0 860000.0 0.0 860000.0 860000.0 860000.0 860000.0 860000.0 860000.0 860000.0 860000.0 860000.0 860000.0 860000.0 860000.0 860000.0 860000.0 860000.0 860000.0 860000.0 860000.0 860000.0 860000.0 860000.0 860000.0 860000.0 860000.0 860000.0 860000.0 860000.0 860000.0 860000.0 860000.0 860000.0 860000.0 860000.0 860000.0 860000.0 860000.0 860000.0 860000.0 860000.0 860000.0 860000.0 860000.0 860000.0 860000.0 860000.0 860000.0 860000.0 860000.0 860000.0 860000.0 860000.0 860000.0 860000.0 860000.0 860000.0 860000.0 860000.0 860000.0 0.0 0.0 860000.0 860000.0 860000.0 860000.0 860000.0 860000.0 860000.0 860000.0 860000.0 860000.0 860000.0 860000.0 860000.0 860000.0 860000.0 860000.0 860000.0 860000.0 860000.0 860000.0 860000.0 860000.0 860000.0 860000.0 860000.0 860000.0 860000.0 860000.0 860000.0 860000.0 860000.0 860000.0 860000.0 860000.0 860000.0 860000.0 860000.0 860000.0 860000.0 860000.0 860000.0 860000.0 860000.0 860000.0 860000.0 860000.0 860000.0 860000.0 860000.0 860000.0 860000.0 860000.0 860000.0 860000.0 860000.0 860000.0 860000.0 860000.0 0.0 0.0 860000.0 860000.0 860000.0 860000.0 860000.0 860000.0 860000.0 860000.0 860000.0 860000.0 860000.0 860000.0 860000.0 860000.0 860000.0 860000.0 860000.0 860000.0 860000.0 860000.0 860000.0 860000.0 860000.0 860000.0 860000.0 860000.0 860000.0 860000.0 860000.0 860000.0 860000.0 860000.0 860000.0 860000.0 860000.0 860000.0 860000.0 860000.0 860000.0 860000.0 860000.0 860000.0 860000.0 860000.0 860000.0 860000.0 860000.0 860000.0 860000.0 860000.0 860000.0 860000.0 860000.0 860000.0 860000.0 860000.0 860000.0 860000.0 0.0 0.0 860000.0 860000.0 860000.0 860000.0 860000.0 860000.0 860000.0 860000.0 860000.0 860000.0 860000.0 860000.0 860000.0 860000.0 860000.0 860000.0 860000.0 860000.0 860000.0 860000.0 860000.0 860000.0 860000.0 860000.0 860000.0 860000.0 860000.0 860000.0 860000.0 860000.0 860000.0 860000.0 860000.0 860000.0 860000.0 860000.0 860000.0 860000.0 860000.0 860000.0 860000.0 860000.0 860000.0 860000.0 860000.0 860000.0 860000.0 860000.0 860000.0 860000.0 860000.0 860000.0 860000.0 860000.0 860000.0 860000.0 860000.0 860000.0 0.0 0.0 0.0 860000.0 860000.0 860000.0 860000.0 860000.0 860000.0 860000.0 860000.0 860000.0 860000.0 860000.0 860000.0 860000.0 860000.0 860000.0 860000.0 860000.0 860000.0 860000.0 860000.0 860000.0 860000.0 860000.0 860000.0 860000.0 860000.0 860000.0 860000.0 860000.0 860000.0 860000.0 860000.0 860000.0 860000.0 860000.0 860000.0 860000.0 860000.0 860000.0 860000.0 860000.0 860000.0 860000.0 860000.0 860000.0 860000.0 860000.0 860000.0 860000.0 860000.0 860000.0 860000.0 860000.0 860000.0 860000.0 860000.0 0.0 0.0 0.0 0.0 860000.0 860000.0 860000.0 860000.0 860000.0 860000.0 860000.0 860000.0 860000.0 860000.0 860000.0 860000.0 860000.0 860000.0 860000.0 860000.0 860000.0 860000.0 860000.0 860000.0 860000.0 860000.0 860000.0 860000.0 860000.0 860000.0 860000.0 860000.0 860000.0 860000.0 860000.0 860000.0 860000.0 860000.0 860000.0 860000.0 860000.0 860000.0 860000.0 860000.0 860000.0 860000.0 860000.0 860000.0 860000.0 860000.0 860000.0 860000.0 860000.0 860000.0 860000.0 860000.0 860000.0 860000.0 860000.0 860000.0 0.0 0.0 0.0 0.0 860000.0 860000.0 860000.0 860000.0 860000.0 860000.0 860000.0 860000.0 860000.0 860000.0 860000.0 860000.0 860000.0 860000.0 860000.0 860000.0 860000.0 860000.0 860000.0 860000.0 860000.0 860000.0 860000.0 860000.0 860000.0 860000.0 860000.0 860000.0 860000.0 860000.0 860000.0 860000.0 860000.0 860000.0 860000.0 860000.0 860000.0 860000.0 860000.0 860000.0 860000.0 860000.0 860000.0 860000.0 860000.0 860000.0 860000.0 860000.0 860000.0 860000.0 860000.0 860000.0 860000.0 860000.0 860000.0 860000.0 0.0 0.0 0.0 0.0 0.0 860000.0 860000.0 860000.0 860000.0 860000.0 860000.0 860000.0 860000.0 860000.0 860000.0 860000.0 860000.0 860000.0 860000.0 860000.0 860000.0 860000.0 860000.0 860000.0 860000.0 860000.0 860000.0 860000.0 860000.0 860000.0 860000.0 860000.0 860000.0 860000.0 860000.0 860000.0 860000.0 860000.0 860000.0 860000.0 860000.0 860000.0 860000.0 860000.0 860000.0 860000.0 860000.0 860000.0 860000.0 860000.0 860000.0 860000.0 860000.0 860000.0 860000.0 860000.0 860000.0 860000.0 860000.0 0.0 0.0 0.0 0.0 0.0 0.0 860000.0 860000.0 860000.0 860000.0 860000.0 860000.0 860000.0 860000.0 860000.0 860000.0 860000.0 860000.0 860000.0 860000.0 860000.0 860000.0 860000.0 860000.0 860000.0 860000.0 860000.0 860000.0 860000.0 860000.0 860000.0 860000.0 860000.0 860000.0 860000.0 860000.0 860000.0 860000.0 860000.0 860000.0 860000.0 860000.0 860000.0 860000.0 860000.0 860000.0 860000.0 860000.0 860000.0 860000.0 860000.0 860000.0 860000.0 860000.0 860000.0 860000.0 860000.0 860000.0 860000.0 860000.0 0.0 0.0 0.0 0.0 0.0 0.0 0.0 860000.0 860000.0 860000.0 860000.0 860000.0 860000.0 860000.0 860000.0 860000.0 860000.0 860000.0 860000.0 860000.0 860000.0 860000.0 860000.0 860000.0 860000.0 860000.0 860000.0 860000.0 860000.0 860000.0 860000.0 860000.0 860000.0 860000.0 860000.0 860000.0 860000.0 860000.0 860000.0 860000.0 860000.0 860000.0 860000.0 860000.0 860000.0 860000.0 860000.0 860000.0 860000.0 860000.0 860000.0 860000.0 860000.0 860000.0 860000.0 860000.0 860000.0 860000.0 860000.0 0.0 0.0 0.0 0.0 0.0 0.0 0.0 0.0 860000.0 860000.0 860000.0 860000.0 860000.0 860000.0 860000.0 860000.0 860000.0 860000.0 860000.0 860000.0 860000.0 860000.0 860000.0 860000.0 860000.0 860000.0 860000.0 860000.0 860000.0 860000.0 860000.0 860000.0 860000.0 860000.0 860000.0 860000.0 860000.0 860000.0 860000.0 860000.0 860000.0 860000.0 860000.0 860000.0 860000.0 860000.0 860000.0 860000.0 860000.0 860000.0 860000.0 860000.0 860000.0 860000.0 860000.0 860000.0 860000.0 860000.0 860000.0 860000.0 0.0 0.0 0.0 0.0 0.0 0.0 0.0 0.0 0.0 860000.0 860000.0 860000.0 860000.0 860000.0 860000.0 860000.0 860000.0 860000.0 860000.0 860000.0 860000.0 860000.0 860000.0 860000.0 860000.0 860000.0 860000.0 860000.0 860000.0 860000.0 860000.0 860000.0 860000.0 860000.0 860000.0 860000.0 860000.0 860000.0 860000.0 860000.0 860000.0 860000.0 860000.0 860000.0 860000.0 860000.0 860000.0 860000.0 860000.0 860000.0 860000.0 860000.0 860000.0 860000.0 860000.0 860000.0 860000.0 860000.0 860000.0 0.0 0.0 0.0 0.0 0.0 0.0 0.0 0.0 0.0 0.0 0.0 860000.0 860000.0 860000.0 860000.0 860000.0 860000.0 860000.0 860000.0 860000.0 860000.0 860000.0 860000.0 860000.0 860000.0 860000.0 860000.0 860000.0 860000.0 860000.0 860000.0 860000.0 860000.0 860000.0 860000.0 860000.0 860000.0 860000.0 860000.0 860000.0 860000.0 860000.0 860000.0 860000.0 860000.0 860000.0 860000.0 860000.0 860000.0 860000.0 860000.0 860000.0 860000.0 860000.0 860000.0 860000.0 860000.0 860000.0 860000.0 0.0 0.0 0.0 0.0 0.0 0.0 0.0 0.0 0.0 0.0 0.0 0.0 860000.0 860000.0 860000.0 860000.0 860000.0 860000.0 860000.0 860000.0 860000.0 860000.0 860000.0 860000.0 860000.0 860000.0 860000.0 860000.0 860000.0 860000.0 860000.0 860000.0 860000.0 860000.0 860000.0 860000.0 860000.0 860000.0 860000.0 860000.0 860000.0 860000.0 860000.0 860000.0 860000.0 860000.0 860000.0 860000.0 860000.0 860000.0 860000.0 860000.0 860000.0 860000.0 860000.0 860000.0 860000.0 860000.0 860000.0 860000.0 0.0 0.0 0.0 0.0 0.0 0.0 0.0 0.0 0.0 0.0 0.0 0.0 0.0 860000.0 860000.0 860000.0 860000.0 860000.0 860000.0 860000.0 860000.0 860000.0 860000.0 860000.0 860000.0 860000.0 860000.0 860000.0 860000.0 860000.0 860000.0 860000.0 860000.0 860000.0 860000.0 860000.0 860000.0 860000.0 860000.0 860000.0 860000.0 860000.0 860000.0 860000.0 860000.0 860000.0 860000.0 860000.0 860000.0 860000.0 860000.0 860000.0 860000.0 860000.0 860000.0 860000.0 860000.0 860000.0 860000.0 0.0 0.0 0.0 0.0 0.0 0.0 0.0 0.0 0.0 0.0 0.0 0.0 0.0 0.0 0.0 860000.0 860000.0 860000.0 860000.0 860000.0 860000.0 860000.0 860000.0 860000.0 860000.0 860000.0 860000.0 860000.0 860000.0 860000.0 860000.0 860000.0 860000.0 860000.0 860000.0 860000.0 860000.0 860000.0 860000.0 860000.0 860000.0 860000.0 860000.0 860000.0 860000.0 860000.0 860000.0 860000.0 860000.0 860000.0 860000.0 860000.0 860000.0 860000.0 860000.0 860000.0 860000.0 860000.0 860000.0 0.0 0.0 0.0 0.0 0.0 0.0 0.0 0.0 0.0 0.0 0.0 0.0 0.0 0.0 0.0 0.0 0.0 860000.0 860000.0 860000.0 860000.0 860000.0 860000.0 860000.0 860000.0 860000.0 860000.0 860000.0 860000.0 860000.0 860000.0 860000.0 860000.0 860000.0 860000.0 860000.0 860000.0 860000.0 860000.0 860000.0 860000.0 860000.0 860000.0 860000.0 860000.0 860000.0 860000.0 860000.0 860000.0 860000.0 860000.0 860000.0 860000.0 860000.0 860000.0 860000.0 860000.0 860000.0 860000.0 0.0 0.0 0.0 0.0 0.0 0.0 0.0 0.0 0.0 0.0 0.0 0.0 0.0 0.0 0.0 0.0 0.0 0.0 0.0 860000.0 860000.0 860000.0 860000.0 860000.0 860000.0 860000.0 860000.0 860000.0 860000.0 860000.0 860000.0 860000.0 860000.0 860000.0 860000.0 860000.0 860000.0 860000.0 860000.0 860000.0 860000.0 860000.0 860000.0 860000.0 860000.0 860000.0 860000.0 860000.0 860000.0 860000.0 860000.0 860000.0 860000.0 860000.0 860000.0 860000.0 860000.0 860000.0 860000.0 0.0 0.0 0.0 0.0 0.0 0.0 0.0 0.0 0.0 0.0 0.0 0.0 0.0 0.0 0.0 0.0 0.0 0.0 0.0 0.0 0.0 860000.0 860000.0 860000.0 860000.0 860000.0 860000.0 860000.0 860000.0 860000.0 860000.0 860000.0 860000.0 860000.0 860000.0 860000.0 860000.0 860000.0 860000.0 860000.0 860000.0 860000.0 860000.0 860000.0 860000.0 860000.0 860000.0 860000.0 860000.0 860000.0 860000.0 860000.0 860000.0 860000.0 860000.0 860000.0 860000.0 860000.0 860000.0 0.0 0.0 0.0 0.0 0.0 0.0 0.0 0.0 0.0 0.0 0.0 0.0 0.0 0.0 0.0 0.0 0.0 0.0 0.0 0.0 0.0 0.0 0.0 0.0 860000.0 860000.0 860000.0 860000.0 860000.0 860000.0 860000.0 860000.0 860000.0 860000.0 860000.0 860000.0 860000.0 860000.0 860000.0 860000.0 860000.0 860000.0 860000.0 860000.0 860000.0 860000.0 860000.0 860000.0 860000.0 860000.0 860000.0 860000.0 860000.0 860000.0 860000.0 860000.0 860000.0 860000.0 0.0 0.0 0.0 0.0 0.0 0.0 0.0 0.0 0.0 0.0 0.0 0.0 0.0 0.0 0.0 0.0 0.0 0.0 0.0 0.0 0.0 0.0 0.0 0.0 0.0 0.0 0.0 860000.0 860000.0 860000.0 860000.0 860000.0 860000.0 860000.0 860000.0 860000.0 860000.0 860000.0 860000.0 860000.0 860000.0 860000.0 860000.0 860000.0 860000.0 860000.0 860000.0 860000.0 860000.0 860000.0 860000.0 860000.0 860000.0 860000.0 860000.0 860000.0 860000.0 860000.0 860000.0 0.0 0.0 0.0 0.0 0.0 0.0 0.0 0.0 0.0 0.0 0.0 0.0 0.0 0.0 0.0 0.0 0.0 0.0 0.0 0.0 0.0 0.0 0.0 0.0 0.0 0.0 0.0 0.0 0.0 0.0 860000.0 860000.0 860000.0 860000.0 860000.0 860000.0 860000.0 860000.0 860000.0 860000.0 860000.0 860000.0 860000.0 860000.0 860000.0 860000.0 860000.0 860000.0 860000.0 860000.0 860000.0 860000.0 860000.0 860000.0 860000.0 860000.0 860000.0 860000.0 0.0 0.0 0.0 0.0 0.0 0.0 0.0 0.0 0.0 0.0 0.0 0.0 0.0 0.0 0.0 0.0 0.0 0.0 0.0 0.0 0.0 0.0 0.0 0.0 0.0 0.0 0.0 0.0 0.0 0.0 0.0 0.0 0.0 0.0 860000.0 860000.0 860000.0 860000.0 860000.0 860000.0 860000.0 860000.0 860000.0 860000.0 860000.0 860000.0 860000.0 860000.0 860000.0 860000.0 860000.0 860000.0 860000.0 860000.0 860000.0 860000.0 860000.0 860000.0 0.0 0.0 0.0 0.0 0.0 0.0 0.0 0.0 0.0 0.0 0.0 0.0 0.0 0.0 0.0 0.0 0.0 0.0 0.0 0.0 0.0 0.0 0.0 0.0 0.0 0.0 0.0 0.0 0.0 0.0 0.0 0.0 0.0 0.0 0.0 0.0 0.0 0.0 0.0 860000.0 860000.0 860000.0 860000.0 860000.0 860000.0 860000.0 860000.0 860000.0 860000.0 860000.0 860000.0 860000.0 860000.0 860000.0 860000.0 860000.0 860000.0 0.0 0.0 0.0 0.0 0.0 0.0 0.0 0.0 0.0 0.0 0.0 0.0 0.0 0.0 0.0 0.0 0.0 0.0 0.0 0.0 0.0 0.0 0.0 0.0 0.0 0.0 0.0 0.0 0.0 0.0 0.0 0.0 0.0 0.0 0.0 0.0 0.0 0.0 0.0 0.0 0.0 0.0 0.0 0.0 0.0 0.0 860000.0 860000.0 860000.0 860000.0 860000.0 860000.0 860000.0 860000.0 860000.0 860000.0 0.0 0.0 0.0 0.0 0.0 0.0 0.0 0.0 0.0 0.0 0.0 0.0 0.0 0.0 0.0 0.0 0.0 0.0 0.0 0.0 0.0 0.0 0.0 0.0 0.0
VECTORS spins double
0.0 0.0 0.0
0.0 0.0 0.0
0.0 0.0 0.0
0.0 0.0 0.0
0.0 0.0 0.0
0.0 0.0 0.0
0.0 0.0 0.0
0.0 0.0 0.0
0.0 0.0 0.0
0.0 0.0 0.0
0.0 0.0 0.0
0.0 0.0 0.0
0.0 0.0 0.0
0.0 0.0 0.0
0.0 0.0 0.0
0.0 0.0 0.0
0.0 0.0 0.0
0.0 0.0 0.0
0.0 0.0 0.0
0.0 0.0 0.0
0.0 0.0 0.0
0.0 0.0 0.0
0.0 0.0 0.0
0.0 0.0 0.0
0.0 0.0 0.0
0.37545262010625696 0.0937137279486262 0.9220916805010874
0.3978643894357907 -0.0018032008144930809 0.9174424647277373
0.425969852724855 -0.030243722899872337 0.9042317190824067
0.4489735902568687 -0.02927693777435153 0.8930652698243337
0.4623554245361956 -0.015036067360198177 0.8865671875725486