# vtk DataFile Version 2.0

ASCII
DATASET RECTILINEAR_GRID
DIMENSIONS 61 61 2
X_COORDINATES 61 double
0.0 2.0 4.0 6.0 8.0 10.0 12.0 14.0 16.0 18.0 20.0 22.0 24.0 26.0 28.0 30.0 32.0 34.0 36.0 38.0 40.0 42.0 44.0 46.0 48.0 50.0 52.0 54.0 56.0 58.0 60.0 62.0 64.0 66.0 68.0 70.0 72.0 74.0 76.0 78.0 80.0 82.0 84.0 86.0 88.0 90.0 92.0 94.0 96.0 98.0 100.0 102.0 104.0 106.0 108.0 110.0 112.0 114.0 116.0 118.0 120.0
Y_COORDINATES 61 double
0.0 2.0 4.0 6.0 8.0 10.0 12.0 14.0 16.0 18.0 20.0 22.0 24.0 26.0 28.0 30.0 32.0 34.0 36.0 38.0 40.0 42.0 44.0 46.0 48.0 50.0 52.0 54.0 56.0 58.0 60.0 62.0 64.0 66.0 68.0 70.0 72.0 74.0 76.0 78.0 80.0 82.0 84.0 86.0 88.0 90.0 92.0 94.0 96.0 98.0 100.0 102.0 104.0 106.0 108.0 110.0 112.0 114.0 116.0 118.0 120.0
Z_COORDINATES 2 double
0.0 2.0
CELL_DATA 3600
SCALARS M_s double 1
LOOKUP_TABLE default
0.0 0.0 0.0 0.0 0.0 0.0 0.0 0.0 0.0 0.0 0.0 0.0 0.0 0.0 0.0 0.0 0.0 0.0 0.0 0.0 0.0 0.0 0.0 0.0 0.0 860000.0 860000.0 860000.0 860000.0 860000.0 860000.0 860000.0 860000.0 860000.0 860000.0 0.0 0.0 0.0 0.0 0.0 0.0 0.0 0.0 0.0 0.0 0.0 0.0 0.0 0.0 0.0 0.0 0.0 0.0 0.0 0.0 0.0 0.0 0.0 0.0 0.0 0.0 0.0 0.0 0.0 0.0 0.0 0.0 0.0 0.0 0.0 0.0 0.0 0.0 0.0 0.0 0.0 0.0 0.0 0.0 0.0 0.0 860000.0 860000.0 860000.0 860000.0 860000.0 860000.0 860000.0 860000.0 860000.0 860000.0 860000.0 860000.0 860000.0 860000.0 860000.0 860000.0 860000.0 860000.0 0.0 0.0 0.0 0.0 0.0 0.0 0.0 0.0 0.0 0.0 0.0 0.0 0.0 0.0 0.0 0.0 0.0 0.0 0.0 0.0 0.0 0.0 0.0 0.0 0.0 0.0 0.0 0.0 0.0 0.0 0.0 0.0 0.0 0.0 0.0 0.0 0.0 0.0 0.0 860000.0 860000.0 860000.0 860000.0 860000.0 860000.0 860000.0 860000.0 860000.0 860000.0 860000.0 860000.0 860000.0 860000.0 860000.0 860000.0 860000.0 860000.0 860000.0 860000.0 860000.0 860000.0 860000.0 860000.0 0.0 0.0 0.0 0.0 0.0 0.0 0.0 0.0 0.0 0.0 0.0 0.0 0.0 0.0 0.0 0.0 0.0 0.0 0.0 0.0 0.0 0.0 0.0 0.0 0.0 0.0 0.0 0.0 0.0 0.0 0.0 0.0 0.0 0.0 860000.0 860000.0 860000.0 860000.0 860000.0 860000.0 860000.0 860000.0 860000.0 860000.0 860000.0 860000.0 860000.0 860000.0 860000.0 860000.0 860000.0 860000.0 860000.0 860000.0 860000.0 860000.0 860000.0 860000.0 860000.0 860000.0 860000.0 860000.0 0.0 0.0 0.0 0.0 0.0 0.0 0.0 0.0 0.0 0.0 0.0 0.0 0.0 0.0 0.0 0.0 0.0 0.0 0.0 0.0 0.0 0.0 0.0 0.0 0.0 0.0 0.0 0.0 0.0 0.0 860000.0 860000.0 860000.0 860000.0 860000.0 860000.0 860000.0 860000.0 860000.0 860000.0 860000.0 860000.0 860000.0 860000.0 860000.0 860000.0 860000.0 860000.0 860000.0 860000.0 860000.0 860000.0 860000.0 860000.0 860000.0 860000.0 860000.0 860000.0 860000.0 860000.0 860000.0 860000.0 0.0 0.0 0.0 0.0 0.0 0.0 0.0 0.0 0.0 0.0 0.0 0.0 0.0 0.0 0.0 0.0 0.0 0.0 0.0 0.0 0.0 0.0 0.0 0.0 0.0 0.0 0.0 860000.0 860000.0 860000.0 860000.0 860000.0 860000.0 860000.0 860000.0 860000.0 860000.0 860000.0 860000.0 860000.0 860000.0 860000.0 860000.0 860000.0 860000.0 860000.0 860000.0 860000.0 860000.0 860000.0 860000.0 860000.0 860000.0 860000.0 860000.0 860000.0 860000.0 860000.0 860000.0 860000.0 860000.0 0.0 0.0 0.0 0.0 0.0 0.0 0.0 0.0 0.0 0.0 0.0 0.0 0.0 0.0 0.0 0.0 0.0 0.0 0.0 0.0 0.0 0.0 0.0 0.0 860000.0 860000.0 860000.0 860000.0 860000.0 860000.0 860000.0 860000.0 860000.0 860000.0 860000.0 860000.0 860000.0 860000.0 860000.0 860000.0 860000.0 860000.0 860000.0 860000.0 860000.0 860000.0 860000.0 860000.0 860000.0 860000.0 860000.0 860000.0 860000.0 860000.0 860000.0 860000.0 860000.0 860000.0 860000.0 860000.0 860000.0 860000.0 0.0 0.0 0.0 0.0 0.0 0.0 0.0 0.0 0.0 0.0 0.0 0.0 0.0 0.0 0.0 0.0 0.0 0.0 0.0 0.0 0.0 860000.0 860000.0 860000.0 860000.0 860000.0 860000.0 860000.0 860000.0 860000.0 860000.0 860000.0 860000.0 860000.0 860000.0 860000.0 860000.0 860000.0 860000.0 860000.0 860000.0 860000.0 860000.0 860000.0 860000.0 860000.0 860000.0 860000.0 860000.0 860000.0 860000.0 860000.0 860000.0 860000.0 860000.0 860000.0 860000.0 860000.0 860000.0 860000.0 860000.0 0.0 0.0 0.0 0.0 0.0 0.0 0.0 0.0 0.0 0.0 0.0 0.0 0.0 0.0 0.0 0.0 0.0 0.0 0.0 860000.0 860000.0 860000.0 860000.0 860000.0 860000.0 860000.0 860000.0 860000.0 860000.0 860000.0 860000.0 860000.0 860000.0 860000.0 860000.0 860000.0 860000.0 860000.0 860000.0 860000.0 860000.0 860000.0 860000.0 860000.0 860000.0 860000.0 860000.0 860000.0 860000.0 860000.0 860000.0 860000.0 860000.0 860000.0 860000.0 860000.0 860000.0 860000.0 860000.0 860000.0 860000.0 0.0 0.0 0.0 0.0 0.0 0.0 0.0 0.0 0.0 0.0 0.0 0.0 0.0 0.0 0.0 0.0 0.0 860000.0 860000.0 860000.0 860000.0 860000.0 860000.0 860000.0 860000.0 860000.0 860000.0 860000.0 860000.0 860000.0 860000.0 860000.0 860000.0 860000.0 860000.0 860000.0 860000.0 860000.0 860000.0 860000.0 860000.0 860000.0 860000.0 860000.0 860000.0 860000.0 860000.0 860000.0 860000.0 860000.0 860000.0 860000.0 860000.0 860000.0 860000.0 860000.0 860000.0 860000.0 860000.0 860000.0 860000.0 0.0 0.0 0.0 0.0 0.0 0.0 0.0 0.0 0.0 0.0 0.0 0.0 0.0 0.0 0.0 860000.0 860000.0 860000.0 860000.0 860000.0 860000.0 860000.0 860000.0 860000.0 860000.0 860000.0 860000.0 860000.0 860000.0 860000.0 860000.0 860000.0 860000.0 860000.0 860000.0 860000.0 860000.0 860000.0 860000.0 860000.0 860000.0 860000.0 860000.0 860000.0 860000.0 860000.0 860000.0 860000.0 860000.0 860000.0 860000.0 860000.0 860000.0 860000.0 860000.0 860000.0 860000.0 860000.0 860000.0 860000.0 860000.0 0.0 0.0 0.0 0.0 0.0 0.0 0.0 0.0 0.0 0.0 0.0 0.0 0.0 860000.0 860000.0 860000.0 860000.0 860000.0 860000.0 860000.0 860000.0 860000.0 860000.0 860000.0 860000.0 860000.0 860000.0 860000.0 860000.0 860000.0 860000.0 860000.0 860000.0 860000.0 860000.0 860000.0 860000.0 860000.0 860000.0 860000.0 860000.0 860000.0 860000.0 860000.0 860000.0 860000.0 860000.0 860000.0 860000.0 860000.0 860000.0 860000.0 860000.0 860000.0 860000.0 860000.0 860000.0 860000.0 860000.0 860000.0 860000.0 0.0 0.0 0.0 0.0 0.0 0.0 0.0 0.0 0.0 0.0 0.0 0.0 860000.0 860000.0 860000.0 860000.0 860000.0 860000.0 860000.0 860000.0 860000.0 860000.0 860000.0 860000.0 860000.0 860000.0 860000.0 860000.0 860000.0 860000.0 860000.0 860000.0 860000.0 860000.0 860000.0 860000.0 860000.0 860000.0 860000.0 860000.0 860000.0 860000.0 860000.0 860000.0 860000.0 860000.0 860000.0 860000.0 860000.0 860000.0 860000.0 860000.0 860000.0 860000.0 860000.0 860000.0 860000.0 860000.0 860000.0 860000.0 0.0 0.0 0.0 0.0 0.0 0.0 0.0 0.0 0.0 0.0 0.0 860000.0 860000.0 860000.0 860000.0 860000.0 860000.0 860000.0 860000.0 860000.0 860000.0 860000.0 860000.0 860000.0 860000.0 860000.0 860000.0 860000.0 860000.0 860000.0 860000.0 860000.0 860000.0 860000.0 860000.0 860000.0 860000.0 860000.0 860000.0 860000.0 860000.0 860000.0 860000.0 860000.0 860000.0 860000.0 860000.0 860000.0 860000.0 860000.0 860000.0 860000.0 860000.0 860000.0 860000.0 860000.0 860000.0 860000.0 860000.0 860000.0 860000.0 0.0 0.0 0.0 0.0 0.0 0.0 0.0 0.0 0.0 860000.0 860000.0 860000.0 860000.0 860000.0 860000.0 860000.0 860000.0 860000.0 860000.0 860000.0 860000.0 860000.0 860000.0 860000.0 860000.0 860000.0 860000.0 860000.0 860000.0 860000.0 860000.0 860000.0 860000.0 860000.0 860000.0 860000.0 860000.0 860000.0 860000.0 860000.0 860000.0 860000.0 860000.0 860000.0 860000.0 860000.0 860000.0 860000.0 860000.0 860000.0 860000.0 860000.0 860000.0 860000.0 860000.0 860000.0 860000.0 860000.0 860000.0 860000.0 860000.0 0.0 0.0 0.0 0.0 0.0 0.0 0.0 0.0 860000.0 860000.0 860000.0 860000.0 860000.0 860000.0 860000.0 860000.0 860000.0 860000.0 860000.0 860000.0 860000.0 860000.0 860000.0 860000.0 860000.0 860000.0 860000.0 860000.0 860000.0 860000.0 860000.0 860000.0 860000.0 860000.0 860000.0 860000.0 860000.0 860000.0 860000.0 860000.0 860000.0 860000.0 860000.0 860000.0 860000.0 860000.0 860000.0 860000.0 860000.0 860000.0 860000.0 860000.0 860000.0 860000.0 860000.0 860000.0 860000.0 860000.0 860000.0 860000.0 0.0 0.0 0.0 0.0 0.0 0.0 0.0 860000.0 860000.0 860000.0 860000.0 860000.0 860000.0 860000.0 860000.0 860000.0 860000.0 860000.0 860000.0 860000.0 860000.0 860000.0 860000.0 860000.0 860000.0 860000.0 860000.0 860000.0 860000.0 860000.0 860000.0 860000.0 860000.0 860000.0 860000.0 860000.0 860000.0 860000.0 860000.0 860000.0 860000.0 860000.0 860000.0 860000.0 860000.0 860000.0 860000.0 860000.0 860000.0 860000.0 860000.0 860000.0 860000.0 860000.0 860000.0 860000.0 860000.0 860000.0 860000.0 860000.0 860000.0 0.0 0.0 0.0 0.0 0.0 0.0 860000.0 860000.0 860000.0 860000.0 860000.0 860000.0 860000.0 860000.0 860000.0 860000.0 860000.0 860000.0 860000.0 860000.0 860000.0 860000.0 860000.0 860000.0 860000.0 860000.0 860000.0 860000.0 860000.0 860000.0 860000.0 860000.0 860000.0 860000.0 860000.0 860000.0 860000.0 860000.0 860000.0 860000.0 860000.0 860000.0 860000.0 860000.0 860000.0 860000.0 860000.0 860000.0 860000.0 860000.0 860000.0 860000.0 860000.0 860000.0 860000.0 860000.0 860000.0 860000.0 860000.0 860000.0 0.0 0.0 0.0 0.0 0.0 860000.0 860000.0 860000.0 860000.0 860000.0 860000.0 860000.0 860000.0 860000.0 860000.0 860000.0 860000.0 860000.0 860000.0 860000.0 860000.0 860000.0 860000.0 860000.0 860000.0 860000.0 860000.0 860000.0 860000.0 860000.0 860000.0 860000.0 860000.0 860000.0 860000.0 860000.0 860000.0 860000.0 860000.0 860000.0 860000.0 860000.0 860000.0 860000.0 860000.0 860000.0 860000.0 860000.0 860000.0 860000.0 860000.0 860000.0 860000.0 860000.0 860000.0 860000.0 860000.0 860000.0 860000.0 860000.0 860000.0 0.0 0.0 0.0 0.0 860000.0 860000.0 860000.0 860000.0 860000.0 860000.0 860000.0 860000.0 860000.0 860000.0 860000.0 860000.0 860000.0 860000.0 860000.0 860000.0 860000.0 860000.0 860000.0 860000.0 860000.0 860000.0 860000.0 860000.0 860000.0 860000.0 860000.0 860000.0 860000.0 860000.0 860000.0 860000.0 860000.0 860000.0 860000.0 860000.0 860000.0 860000.0 860000.0 860000.0 860000.0 860000.0 860000.0 860000.0 860000.0 860000.0 860000.0 860000.0 860000.0 860000.0 860000.0 860000.0 860000.0 860000.0 860000.0 860000.0 0.0 0.0 0.0 0.0 860000.0 860000.0 860000.0 860000.0 860000.0 860000.0 860000.0 860000.0 860000.0 860000.0 860000.0 860000.0 860000.0 860000.0 860000.0 860000.0 860000.0 860000.0 860000.0 860000.0 860000.0 860000.0 860000.0 860000.0 860000.0 860000.0 860000.0 860000.0 860000.0 860000.0 860000.0 860000.0 860000.0 860000.0 860000.0 860000.0 860000.0 860000.0 860000.0 860000.0 860000.0 860000.0 860000.0 860000.0 860000.0 860000.0 860000.0 860000.0 860000.0 860000.0 860000.0 860000.0 860000.0 860000.0 860000.0 860000.0 0.0 0.0 0.0 860000.0 860000.0 860000.0 860000.0 860000.0 860000.0 860000.0 860000.0 860000.0 860000.0 860000.0 860000.0 860000.0 860000.0 860000.0 860000.0 860000.0 860000.0 860000.0 860000.0 860000.0 860000.0 860000.0 860000.0 860000.0 860000.0 860000.0 860000.0 860000.0 860000.0 860000.0 860000.0 860000.0 860000.0 860000.0 860000.0 860000.0 860000.0 860000.0 860000.0 860000.0 860000.0 860000.0 860000.0 860000.0 860000.0 860000.0 860000.0 860000.0 860000.0 860000.0 860000.0 860000.0 860000.0 860000.0 860000.0 860000.0 860000.0 0.0 0.0 860000.0 860000.0 860000.0 860000.0 860000.0 860000.0 860000.0 860000.0 860000.0 860000.0 860000.0 860000.0 860000.0 860000.0 860000.0 860000.0 860000.0 860000.0 860000.0 860000.0 860000.0 860000.0 860000.0 860000.0 860000.0 860000.0 860000.0 860000.0 860000.0 860000.0 860000.0 860000.0 860000.0 860000.0 860000.0 860000.0 860000.0 860000.0 860000.0 860000.0 860000.0 860000.0 860000.0 860000.0 860000.0 860000.0 860000.0 860000.0 860000.0 860000.0 860000.0 860000.0 860000.0 860000.0 860000.0 860000.0 860000.0 860000.0 0.0 0.0 860000.0 860000.0 860000.0 860000.0 860000.0 860000.0 860000.0 860000.0 860000.0 860000.0 860000.0 860000.0 860000.0 860000.0 860000.0 860000.0 860000.0 860000.0 860000.0 860000.0 860000.0 860000.0 860000.0 860000.0 860000.0 860000.0 860000.0 860000.0 860000.0 860000.0 860000.0 860000.0 860000.0 860000.0 860000.0 860000.0 860000.0 860000.0 860000.0 860000.0 860000.0 860000.0 860000.0 860000.0 860000.0 860000.0 860000.0 860000.0 860000.0 860000.0 860000.0 860000.0 860000.0 860000.0 860000.0 860000.0 860000.0 860000.0 0.0 0.0 860000.0 860000.0 860000.0 860000.0 860000.0 860000.0 860000.0 860000.0 860000.0 860000.0 860000.0 860000.0 860000.0 860000.0 860000.0 860000.0 860000.0 860000.0 860000.0 860000.0 860000.0 860000.0 860000.0 860000.0 860000.0 860000.0 860000.0 860000.0 860000.0 860000.0 860000.0 860000.0 860000.0 860000.0 860000.0 860000.0 860000.0 860000.0 860000.0 860000.0 860000.0 860000.0 860000.0 860000.0 860000.0 860000.0 860000.0 860000.0 860000.0 860000.0 860000.0 860000.0 860000.0 860000.0 860000.0 860000.0 860000.0 860000.0 0.0 860000.0 860000.0 860000.0 860000.0 860000.0 860000.0 860000.0 860000.0 860000.0 860000.0 860000.0 860000.0 860000.0 860000.0 860000.0 860000.0 860000.0 860000.0 860000.0 860000.0 860000.0 860000.0 860000.0 860000.0 860000.0 860000.0 860000.0 860000.0 860000.0 860000.0 860000.0 860000.0 860000.0 860000.0 860000.0 860000.0 860000.0 860000.0 860000.0 860000.0 860000.0 860000.0 860000.0 860000.0 860000.0 860000.0 860000.0 860000.0 860000.0 860000.0 860000.0 860000.0 860000.0 860000.0 860000.0 860000.0 860000.0 860000.0 860000.0 860000.0 860000.0 860000.0 860000.0 860000.0 860000.0 860000.0 860000.0 860000.0 860000.0 860000.0 860000.0 860000.0 860000.0 860000.0 860000.0 860000.0 860000.0 860000.0 860000.0 860000.0 860000.0 860000.0 860000.0 860000.0 860000.0 860000.0 860000.0 860000.0 860000.0 860000.0 860000.0 860000.0 860000.0 860000.0 860000.0 860000.0 860000.0 860000.0 860000.0 860000.0 860000.0 860000.0 860000.0 860000.0 860000.0 860000.0 860000.0 860000.0 860000.0 860000.0 860000.0 860000.0 860000.0 860000.0 860000.0 860000.0 860000.0 860000.0 860000.0 860000.0 860000.0 860000.0 860000.0 860000.0 860000.0 860000.0 860000.0 860000.0 860000.0 860000.0 860000.0 860000.0 860000.0 860000.0 860000.0 860000.0 860000.0 860000.0 860000.0 860000.0 860000.0 860000.0 860000.0 860000.0 860000.0 860000.0 860000.0 860000.0 860000.0 860000.0 860000.0 860000.0 860000.0 860000.0 860000.0 860000.0 860000.0 860000.0 860000.0 860000.0 860000.0 860000.0 860000.0 860000.0 860000.0 860000.0 860000.0 860000.0 860000.0 860000.0 860000.0 860000.0 860000.0 860000.0 860000.0 860000.0 860000.0 860000.0 860000.0 860000.0 860000.0 860000.0 860000.0 860000.0 860000.0 860000.0 860000.0 860000.0 860000.0 860000.0 860000.0 860000.0 860000.0 860000.0 860000.0 860000.0 860000.0 860000.0 860000.0 860000.0 860000.0 860000.0 860000.0 860000.0 860000.0 860000.0 860000.0 860000.0 860000.0 860000.0 860000.0 860000.0 860000.0 860000.0 860000.0 860000.0 860000.0 860000.0 860000.0 860000.0 860000.0 860000.0 860000.0 860000.0 860000.0 860000.0 860000.0 860000.0 860000.0 860000.0 860000.0 860000.0 860000.0 860000.0 860000.0 860000.0 860000.0 860000.0 860000.0 860000.0 860000.0 860000.0 860000.0 860000.0 860000.0 860000.0 860000.0 860000.0 860000.0 860000.0 860000.0 860000.0 860000.0 860000.0 860000.0 860000.0 860000.0 860000.0 860000.0 860000.0 860000.0 860000.0 860000.0 860000.0 860000.0 860000.0 860000.0 860000.0 860000.0 860000.0 860000.0 860000.0 860000.0 860000.0 860000.0 860000.0 860000.0 860000.0 860000.0 860000.0 860000.0 860000.0 860000.0 860000.0 860000.0 860000.0 860000.0 860000.0 860000.0 860000.0 860000.0 860000.0 860000.0 860000.0 860000.0 860000.0 860000.0 860000.0 860000.0 860000.0 860000.0 860000.0 860000.0 860000.0 860000.0 860000.0 860000.0 860000.0 860000.0 860000.0 860000.0 860000.0 860000.0 860000.0 860000.0 860000.0 860000.0 860000.0 860000.0 860000.0 860000.0 860000.0 860000.0 860000.0 860000.0 860000.0 860000.0 860000.0 860000.0 860000.0 860000.0 860000.0 860000.0 860000.0 860000.0 860000.0 860000.0 860000.0 860000.0 860000.0 860000.0 860000.0 860000.0 860000.0 860000.0 860000.0 860000.0 860000.0 860000.0 860000.0 860000.0 860000.0 860000.0 860000.0 860000.0 860000.0 860000.0 860000.0 860000.0 860000.0 860000.0 860000.0 860000.0 860000.0 860000.0 860000.0 860000.0 860000.0 860000.0 860000.0 860000.0 860000.0 860000.0 860000.0 860000.0 860000.0 860000.0 860000.0 860000.0 860000.0 860000.0 860000.0 860000.0 860000.0 860000.0 860000.0 860000.0 860000.0 860000.0 860000.0 860000.0 860000.0 860000.0 860000.0 860000.0 860000.0 860000.0 860000.0 860000.0 860000.0 860000.0 860000.0 860000.0 860000.0 860000.0 860000.0 860000.0 860000.0 860000.0 860000.0 860000.0 860000.0 860000.0 860000.0 860000.0 860000.0 860000.0 860000.0 860000.0 860000.0 860000.0 860000.0 860000.0 860000.0 860000.0 860000.0 860000.0 860000.0 860000.0 860000.0 860000.0 860000.0 860000.0 860000.0 860000.0 860000.0 860000.0 860000.0 860000.0 860000.0 860000.0 860000.0 860000.0 860000.0 860000.0 860000.0 860000.0 860000.0 860000.0 860000.0 860000.0 860000.0 860000.0 860000.0 860000.0 860000.0 860000.0 860000.0 860000.0 860000.0 860000.0 860000.0 860000.0 860000.0 860000.0 860000.0 860000.0 860000.0 860000.0 860000.0 860000.0 860000.0 860000.0 860000.0 860000.0 860000.0 860000.0 860000.0 860000.0 860000.0 860000.0 860000.0 860000.0 860000.0 860000.0 860000.0 860000.0 860000.0 860000.0 860000.0 860000.0 860000.0 860000.0 860000.0 860000.0 860000.0 860000.0 860000.0 860000.0 860000.0 860000.0 860000.0 860000.0 860000.0 860000.0 860000.0 860000.0 860000.0 860000.0 860000.0 860000.0 860000.0 860000.0 860000.0 860000.0 860000.0 860000.0 860000.0 860000.0 860000.0 860000.0 860000.0 860000.0 860000.0 860000.0 860000.0 860000.0 860000.0 860000.0 860000.0 860000.0 860000.0 860000.0 860000.0 860000.0 860000.0 860000.0 860000.0 860000.0 860000.0 860000.0 860000.0 860000.0 860000.0 860000.0 860000.0 860000.0 860000.0 860000.0 860000.0 860000.0 860000.0 860000.0 860000.0 860000.0 860000.0 860000.0 860000.0 860000.0 860000.0 860000.0 860000.0 860000.0 860000.0 860000.0 860000.0 860000.0 860000.0 860000.0 860000.0 860000.0 860000.0 860000.0 860000.0 860000.0 860000.0 860000.0 860000.0 860000.0 860000.0 860000.0 860000.0 860000.0 860000.0 860000.0 860000.0 860000.0 860000.0 860000.0 860000.0 860000.0 860000.0 860000.0 860000.0 860000.0 860000.0 860000.0 860000.0 860000.0 860000.0 0.0 860000.0 860000.0 860000.0 860000.0 860000.0 860000.0 860000.0 860000.0 860000.0 860000.0 860000.0 860000.0 860000.0 860000.0 860000.0 860000.0 860000.0 860000.0 860000.0 860000.0 860000.0 860000.0 860000.0 860000.0 860000.0 860000.0 860000.0 860000.0 860000.0 860000.0 860000.0 860000.0 860000.0 860000.0 860000.0 860000.0 860000.0 860000.0 860000.0 860000.0 860000.0 860000.0 860000.0 860000.0 860000.0 860000.0 860000.0 860000.0 860000.0 860000.0 860000.0 860000.0 860000.0 860000.0 860000.0 860000.0 860000.0 860000.0 0.0 0.0 860000.0 860000.0 860000.0 860000.0 860000.0 860000.0 860000.0 860000.0 860000.0 860000.0 860000.0 860000.0 860000.0 860000.0 860000.0 860000.0 860000.0 860000.0 860000.0 860000.0 860000.0 860000.0 860000.0 860000.0 860000.0 860000.0 860000.0 860000.0 860000.0 860000.0 860000.0 860000.0 860000.0 860000.0 860000.0 860000.0 860000.0 860000.0 860000.0 860000.0 860000.0 860000.0 860000.0 860000.0 860000.0 860000.0 860000.0 860000.0 860000.0 860000.0 860000.0 860000.0 860000.0 860000.0 860000.0 860000.0 860000.0 860000.0 0.0 0.0 860000.0 860000.0 860000.0 860000.0 860000.0 860000.0 860000.0 860000.0 860000.0 860000.0 860000.0 860000.0 860000.0 860000.0 860000.0 860000.0 860000.0 860000.0 860000.0 860000.0 860000.0 860000.0 860000.0 860000.0 860000.0 860000.0 860000.0 860000.0 860000.0 860000.0 860000.0 860000.0 860000.0 860000.0 860000.0 860000.0 860000.0 860000.0 860000.0 860000.0 860000.0 860000.0 860000.0 860000.0 860000.0 860000.0 860000.0 860000.0 860000.0 860000.0 860000.0 860000.0 860000.0 860000.0 860000.0 860000.0 860000.0 860000.0 0.0 0.0 860000.0 860000.0 860000.0 860000.0 860000.0 860000.0 860000.0 860000.0 860000.0 860000.0 860000.0 860000.0 860000.0 860000.0 860000.0 860000.0 860000.0 860000.0 860000.0 860000.0 860000.0 860000.0 860000.0 860000.0 860000.0 860000.0 860000.0 860000.0 860000.0 860000.0 860000.0 860000.0 860000.0 860000.0 860000.0 860000.0 860000.0 860000.0 860000.0 860000.0 860000.0 860000.0 860000.0 860000.0 860000.0 860000.0 860000.0 860000.0 860000.0 860000.0 860000.0 860000.0 860000.0 860000.0 860000.0 860000.0 860000.0 860000.0 0.0 0.0 0.0 860000.0 860000.0 860000.0 860000.0 860000.0 860000.0 860000.0 860000.0 860000.0 860000.0 860000.0 860000.0 860000.0 860000.0 860000.0 860000.0 860000.0 860000.0 860000.0 860000.0 860000.0 860000.0 860000.0 860000.0 860000.0 860000.0 860000.0 860000.0 860000.0 860000.0 860000.0 860000.0 860000.0 860000.0 860000.0 860000.0 860000.0 860000.0 860000.0 860000.0 860000.0 860000.0 860000.0 860000.0 860000.0 860000.0 860000.0 860000.0 860000.0 860000.0 860000.0 860000.0 860000.0 860000.0 860000.0 860000.0 0.0 0.0 0.0 0.0 860000.0 860000.0 860000.0 860000.0 860000.0 860000.0 860000.0 860000.0 860000.0 860000.0 860000.0 860000.0 860000.0 860000.0 860000.0 860000.0 860000.0 860000.0 860000.0 860000.0 860000.0 860000.0 860000.0 860000.0 860000.0 860000.0 860000.0 860000.0 860000.0 860000.0 860000.0 860000.0 860000.0 860000.0 860000.0 860000.0 860000.0 860000.0 860000.0 860000.0 860000.0 860000.0 860000.0 860000.0 860000.0 860000.0 860000.0 860000.0 860000.0 860000.0 860000.0 860000.0 860000.0 860000.0 860000.0 860000.0 0.0 0.0 0.0 0.0 860000.0 860000.0 860000.0 860000.0 860000.0 860000.0 860000.0 860000.0 860000.0 860000.0 860000.0 860000.0 860000.0 860000.0 860000.0 860000.0 860000.0 860000.0 860000.0 860000.0 860000.0 860000.0 860000.0 860000.0 860000.0 860000.0 860000.0 860000.0 860000.0 860000.0 860000.0 860000.0 860000.0 860000.0 860000.0 860000.0 860000.0 860000.0 860000.0 860000.0 860000.0 860000.0 860000.0 860000.0 860000.0 860000.0 860000.0 860000.0 860000.0 860000.0 860000.0 860000.0 860000.0 860000.0 860000.0 860000.0 0.0 0.0 0.0 0.0 0.0 860000.0 860000.0 860000.0 860000.0 860000.0 860000.0 860000.0 860000.0 860000.0 860000.0 860000.0 860000.0 860000.0 860000.0 860000.0 860000.0 860000.0 860000.0 860000.0 860000.0 860000.0 860000.0 860000.0 860000.0 860000.0 860000.0 860000.0 860000.0 860000.0 860000.0 860000.0 860000.0 860000.0 860000.0 860000.0 860000.0 860000.0 860000.0 860000.0 860000.0 860000.0 860000.0 860000.0 860000.0 860000.0 860000.0 860000.0 860000.0 860000.0 860000.0 860000.0 860000.0 860000.0 860000.0 0.0 0.0 0.0 0.0 0.0 0.0 860000.0 860000.0 860000.0 860000.0 860000.0 860000.0 860000.0 860000.0 860000.0 860000.0 860000.0 860000.0 860000.0 860000.0 860000.0 860000.0 860000.0 860000.0 860000.0 860000.0 860000.0 860000.0 860000.0 860000.0 860000.0 860000.0 860000.0 860000.0 860000.0 860000.0 860000.0 860000.0 860000.0 860000.0 860000.0 860000.0 860000.0 860000.0 860000.0 860000.0 860000.0 860000.0 860000.0 860000.0 860000.0 860000.0 860000.0 860000.0 860000.0 860000.0 860000.0 860000.0 860000.0 860000.0 0.0 0.0 0.0 0.0 0.0 0.0 0.0 860000.0 860000.0 860000.0 860000.0 860000.0 860000.0 860000.0 860000.0 860000.0 860000.0 860000.0 860000.0 860000.0 860000.0 860000.0 860000.0 860000.0 860000.0 860000.0 860000.0 860000.0 860000.0 860000.0 860000.0 860000.0 860000.0 860000.0 860000.0 860000.0 860000.0 860000.0 860000.0 860000.0 860000.0 860000.0 860000.0 860000.0 860000.0 860000.0 860000.0 860000.0 860000.0 860000.0 860000.0 860000.0 860000.0 860000.0 860000.0 860000.0 860000.0 860000.0 860000.0 0.0 0.0 0.0 0.0 0.0 0.0 0.0 0.0 860000.0 860000.0 860000.0 860000.0 860000.0 860000.0 860000.0 860000.0 860000.0 860000.0 860000.0 860000.0 860000.0 860000.0 860000.0 860000.0 860000.0 860000.0 860000.0 860000.0 860000.0 860000.0 860000.0 860000.0 860000.0 860000.0 860000.0 860000.0 860000.0 860000.0 860000.0 860000.0 860000.0 860000.0 860000.0 860000.0 860000.0 860000.0 860000.0 860000.0 860000.0 860000.0 860000.0 860000.0 860000.0 860000.0 860000.0 860000.0 860000.0 860000.0 860000.0 860000.0 0.0 0.0 0.0 0.0 0.0 0.0 0.0 0.0 0.0 860000.0 860000.0 860000.0 860000.0 860000.0 860000.0 860000.0 860000.0 860000.0 860000.0 860000.0 860000.0 860000.0 860000.0 860000.0 860000.0 860000.0 860000.0 860000.0 860000.0 860000.0 860000.0 860000.0 860000.0 860000.0 860000.0 860000.0 860000.0 860000.0 860000.0 860000.0 860000.0 860000.0 860000.0 860000.0 860000.0 860000.0 860000.0 860000.0 860000.0 860000.0 860000.0 860000.0 860000.0 860000.0 860000.0 860000.0 860000.0 860000.0 860000.0 0.0 0.0 0.0 0.0 0.0 0.0 0.0 0.0 0.0 0.0 0.0 860000.0 860000.0 860000.0 860000.0 860000.0 860000.0 860000.0 860000.0 860000.0 860000.0 860000.0 860000.0 860000.0 860000.0 860000.0 860000.0 860000.0 860000.0 860000.0 860000.0 860000.0 860000.0 860000.0 860000.0 860000.0 860000.0 860000.0 860000.0 860000.0 860000.0 860000.0 860000.0 860000.0 860000.0 860000.0 860000.0 860000.0 860000.0 860000.0 860000.0 860000.0 860000.0 860000.0 860000.0 860000.0 860000.0 860000.0 860000.0 0.0 0.0 0.0 0.0 0.0 0.0 0.0 0.0 0.0 0.0 0.0 0.0 860000.0 860000.0 860000.0 860000.0 860000.0 860000.0 860000.0 860000.0 860000.0 860000.0 860000.0 860000.0 860000.0 860000.0 860000.0 860000.0 860000.0 860000.0 860000.0 860000.0 860000.0 860000.0 860000.0 860000.0 860000.0 860000.0 860000.0 860000.0 860000.0 860000.0 860000.0 860000.0 860000.0 860000.0 860000.0 860000.0 860000.0 860000.0 860000.0 860000.0 860000.0 860000.0 860000.0 860000.0 860000.0 860000.0 860000.0 860000.0 0.0 0.0 0.0 0.0 0.0 0.0 0.0 0.0 0.0 0.0 0.0 0.0 0.0 860000.0 860000.0 860000.0 860000.0 860000.0 860000.0 860000.0 860000.0 860000.0 860000.0 860000.0 860000.0 860000.0 860000.0 860000.0 860000.0 860000.0 860000.0 860000.0 860000.0 860000.0 860000.0 860000.0 860000.0 860000.0 860000.0 860000.0 860000.0 860000.0 860000.0 860000.0 860000.0 860000.0 860000.0 860000.0 860000.0 860000.0 860000.0 860000.0 860000.0 860000.0 860000.0 860000.0 860000.0 860000.0 860000.0 0.0 0.0 0.0 0.0 0.0 0.0 0.0 0.0 0.0 0.0 0.0 0.0 0.0 0.0 0.0 860000.0 860000.0 860000.0 860000.0 860000.0 860000.0 860000.0 860000.0 860000.0 860000.0 860000.0 860000.0 860000.0 860000.0 860000.0 860000.0 860000.0 860000.0 860000.0 860000.0 860000.0 860000.0 860000.0 860000.0 860000.0 860000.0 860000.0 860000.0 860000.0 860000.0 860000.0 860000.0 860000.0 860000.0 860000.0 860000.0 860000.0 860000.0 860000.0 860000.0 860000.0 860000.0 860000.0 860000.0 0.0 0.0 0.0 0.0 0.0 0.0 0.0 0.0 0.0 0.0 0.0 0.0 0.0 0.0 0.0 0.0 0.0 860000.0 860000.0 860000.0 860000.0 860000.0 860000.0 860000.0 860000.0 860000.0 860000.0 860000.0 860000.0 860000.0 860000.0 860000.0 860000.0 860000.0 860000.0 860000.0 860000.0 860000.0 860000.0 860000.0 860000.0 860000.0 860000.0 860000.0 860000.0 860000.0 860000.0 860000.0 860000.0 860000.0 860000.0 860000.0 860000.0 860000.0 860000.0 860000.0 860000.0 860000.0 860000.0 0.0 0.0 0.0 0.0 0.0 0.0 0.0 0.0 0.0 0.0 0.0 0.0 0.0 0.0 0.0 0.0 0.0 0.0 0.0 860000.0 860000.0 860000.0 860000.0 860000.0 860000.0 860000.0 860000.0 860000.0 860000.0 860000.0 860000.0 860000.0 860000.0 860000.0 860000.0 860000.0 860000.0 860000.0 860000.0 860000.0 860000.0 860000.0 860000.0 860000.0 860000.0 860000.0 860000.0 860000.0 860000.0 860000.0 860000.0 860000.0 860000.0 860000.0 860000.0 860000.0 860000.0 860000.0 860000.0 0.0 0.0 0.0 0.0 0.0 0.0 0.0 0.0 0.0 0.0 0.0 0.0 0.0 0.0 0.0 0.0 0.0 0.0 0.0 0.0 0.0 860000.0 860000.0 860000.0 860000.0 860000.0 860000.0 860000.0 860000.0 860000.0 860000.0 860000.0 860000.0 860000.0 860000.0 860000.0 860000.0 860000.0 860000.0 860000.0 860000.0 860000.0 860000.0 860000.0 860000.0 860000.0 860000.0 860000.0 860000.0 860000.0 860000.0 860000.0 860000.0 860000.0 860000.0 860000.0 860000.0 860000.0 860000.0 0.0 0.0 0.0 0.0 0.0 0.0 0.0 0.0 0.0 0.0 0.0 0.0 0.0 0.0 0.0 0.0 0.0 0.0 0.0 0.0 0.0 0.0 0.0 0.0 860000.0 860000.0 860000.0 860000.0 860000.0 860000.0 860000.0 860000.0 860000.0 860000.0 860000.0 860000.0 860000.0 860000.0 860000.0 860000.0 860000.0 860000.0 860000.0 860000.0 860000.0 860000.0 860000.0 860000.0 860000.0 860000.0 860000.0 860000.0 860000.0 860000.0 860000.0 860000.0 860000.0 860000.0 0.0 0.0 0.0 0.0 0.0 0.0 0.0 0.0 0.0 0.0 0.0 0.0 0.0 0.0 0.0 0.0 0.0 0.0 0.0 0.0 0.0 0.0 0.0 0.0 0.0 0.0 0.0 860000.0 860000.0 860000.0 860000.0 860000.0 860000.0 860000.0 860000.0 860000.0 860000.0 860000.0 860000.0 860000.0 860000.0 860000.0 860000.0 860000.0 860000.0 860000.0 860000.0 860000.0 860000.0 860000.0 860000.0 860000.0 860000.0 860000.0 860000.0 860000.0 860000.0 860000.0 860000.0 0.0 0.0 0.0 0.0 0.0 0.0 0.0 0.0 0.0 0.0 0.0 0.0 0.0 0.0 0.0 0.0 0.0 0.0 0.0 0.0 0.0 0.0 0.0 0.0 0.0 0.0 0.0 0.0 0.0 0.0 860000.0 860000.0 860000.0 860000.0 860000.0 860000.0 860000.0 860000.0 860000.0 860000.0 860000.0 860000.0 860000.0 860000.0 860000.0 860000.0 860000.0 860000.0 860000.0 860000.0 860000.0 860000.0 860000.0 860000.0 860000.0 860000.0 860000.0 860000.0 0.0 0.0 0.0 0.0 0.0 0.0 0.0 0.0 0.0 0.0 0.0 0.0 0.0 0.0 0.0 0.0 0.0 0.0 0.0 0.0 0.0 0.0 0.0 0.0 0.0 0.0 0.0 0.0 0.0 0.0 0.0 0.0 0.0 0.0 860000.0 860000.0 860000.0 860000.0 860000.0 860000.0 860000.0 860000.0 860000.0 860000.0 860000.0 860000.0 860000.0 860000.0 860000.0 860000.0 860000.0 860000.0 860000.0 860000.0 860000.0 860000.0 860000.0 860000.0 0.0 0.0 0.0 0.0 0.0 0.0 0.0 0.0 0.0 0.0 0.0 0.0 0.0 0.0 0.0 0.0 0.0 0.0 0.0 0.0 0.0 0.0 0.0 0.0 0.0 0.0 0.0 0.0 0.0 0.0 0.0 0.0 0.0 0.0 0.0 0.0 0.0 0.0 0.0 860000.0 860000.0 860000.0 860000.0 860000.0 860000.0 860000.0 860000.0 860000.0 860000.0 860000.0 860000.0 860000.0 860000.0 860000.0 860000.0 860000.0 860000.0 0.0 0.0 0.0 0.0 0.0 0.0 0.0 0.0 0.0 0.0 0.0 0.0 0.0 0.0 0.0 0.0 0.0 0.0 0.0 0.0 0.0 0.0 0.0 0.0 0.0 0.0 0.0 0.0 0.0 0.0 0.0 0.0 0.0 0.0 0.0 0.0 0.0 0.0 0.0 0.0 0.0 0.0 0.0 0.0 0.0 0.0 860000.0 860000.0 860000.0 860000.0 860000.0 860000.0 860000.0 860000.0 860000.0 860000.0 0.0 0.0 0.0 0.0 0.0 0.0 0.0 0.0 0.0 0.0 0.0 0.0 0.0 0.0 0.0 0.0 0.0 0.0 0.0 0.0 0.0 0.0 0.0 0.0 0.0
VECTORS spins double
0.0 0.0 0.0
0.0 0.0 0.0
0.0 0.0 0.0
0.0 0.0 0.0
0.0 0.0 0.0
0.0 0.0 0.0
0.0 0.0 0.0
0.0 0.0 0.0
0.0 0.0 0.0
0.0 0.0 0.0
0.0 0.0 0.0
0.0 0.0 0.0
0.0 0.0 0.0
0.0 0.0 0.0
0.0 0.0 0.0
0.0 0.0 0.0
0.0 0.0 0.0
0.0 0.0 0.0
0.0 0.0 0.0
0.0 0.0 0.0
0.0 0.0 0.0
0.0 0.0 0.0
0.0 0.0 0.0
0.0 0.0 0.0
0.0 0.0 0.0
0.42758129074738765 0.0787223499584446 0.900542631650395
0.4508546220037694 -0.010961031495997886 0.8925300922693761
0.47946367796252176 -0.03330439478820887 0.8769295289830553
0.5016335228054651 -0.02600036538762692 0.8646894181135147
0.5125181550148362 -0.005525016779026602 0.8586586137515765